 vasp.5.4.4.18Apr17-6-g9f103f2a35 (build Mar 30 2023 15:39:25) complex          
  
 executed on             LinuxIFC date 2023.06.30  15:54:44
 running on   12 total cores
 distrk:  each k-point on   12 cores,    1 groups
 distr:  one band on NCORES_PER_BAND=   1 cores,   12 groups


--------------------------------------------------------------------------------------------------------


 INCAR:
 POTCAR:    PAW_PBE B 06Sep2000                   
 POTCAR:    PAW_PBE C 08Apr2002                   

 ----------------------------------------------------------------------------- 
|                                                                             |
|           W    W    AA    RRRRR   N    N  II  N    N   GGGG   !!!           |
|           W    W   A  A   R    R  NN   N  II  NN   N  G    G  !!!           |
|           W    W  A    A  R    R  N N  N  II  N N  N  G       !!!           |
|           W WW W  AAAAAA  RRRRR   N  N N  II  N  N N  G  GGG   !            |
|           WW  WW  A    A  R   R   N   NN  II  N   NN  G    G                |
|           W    W  A    A  R    R  N    N  II  N    N   GGGG   !!!           |
|                                                                             |
|      For optimal performance we recommend to set                            |
|        NCORE= 4 - approx SQRT( number of cores)                             |
|      NCORE specifies how many cores store one orbital (NPAR=cpu/NCORE).     |
|      This setting can  greatly improve the performance of VASP for DFT.     |
|      The default,   NCORE=1            might be grossly inefficient         |
|      on modern multi-core architectures or massively parallel machines.     |
|      Do your own testing !!!!                                               |
|      Unfortunately you need to use the default for GW and RPA calculations. |
|      (for HF NCORE is supported but not extensively tested yet)             |
|                                                                             |
 ----------------------------------------------------------------------------- 

 POTCAR:    PAW_PBE B 06Sep2000                   
   SHA256 =  a32ced30f5ae56fd4d10b4325ff17eb3e4e38ee0f4288bc219fb012fddfa6e97 B/
   COPYR  = (c) Copyright 06Sep2000 Georg Kresse                                
   COPYR  = This file is part of the software VASP. Any use, copying, and all ot
   COPYR  = If you do not have a valid VASP license, you may not use, copy or di
   VRHFIN =B: s2p1                                                              
   LEXCH  = PE                                                                  
   EATOM  =    71.1703 eV,    5.2309 Ry                                         
                                                                                
   TITEL  = PAW_PBE B 06Sep2000                                                 
   LULTRA =        F    use ultrasoft PP ?                                      
   IUNSCR =        1    unscreen: 0-lin 1-nonlin 2-no                           
   RPACOR =    1.200    partial core radius                                     
   POMASS =   10.811; ZVAL   =    3.000    mass and valenz                      
   RCORE  =    1.700    outmost cutoff radius                                   
   RWIGS  =    1.710; RWIGS  =    0.905    wigner-seitz radius (au A)           
   ENMAX  =  318.614; ENMIN  =  238.960 eV                                      
   ICORE  =        2    local potential                                         
   LCOR   =        T    correct aug charges                                     
   LPAW   =        T    paw PP                                                  
   EAUG   =  535.514                                                            
   DEXC   =    0.000                                                            
   RMAX   =    1.732    core radius for proj-oper                               
   RAUG   =    1.300    factor for augmentation sphere                          
   RDEP   =    1.757    radius for radial grids                                 
   RDEPT  =    1.436    core radius for aug-charge                              
                                                                                
   Atomic configuration                                                         
    4 entries                                                                   
     n  l   j            E        occ.                                          
     1  0  0.50      -180.5896   2.0000                                         
     2  0  0.50        -9.4431   2.0000                                         
     2  1  0.50        -3.6068   1.0000                                         
     3  2  1.50        -4.0817   0.0000                                         
   Description                                                                  
     l       E           TYP  RCUT    TYP  RCUT                                 
     0     -9.4430752     23  1.500                                             
     0      0.8675899     23  1.500                                             
     1     -3.6067955     23  1.700                                             
     1      6.1086146     23  1.700                                             
     2     -4.0817478      7  1.700                                             
  local pseudopotential read in
  partial core-charges read in
  partial kinetic energy density read in
  atomic valenz-charges read in
  non local Contribution for L=           0  read in
    real space projection operators read in
  non local Contribution for L=           0  read in
    real space projection operators read in
  non local Contribution for L=           1  read in
    real space projection operators read in
  non local Contribution for L=           1  read in
    real space projection operators read in
    PAW grid and wavefunctions read in
 
   number of l-projection  operators is LMAX  =           4
   number of lm-projection operators is LMMAX =           8
 
 POTCAR:    PAW_PBE C 08Apr2002                   
   SHA256 =  253f7b50bb8d59471dbedb8285d89021f4a42ed1a2c5d38a03a736e69125dd95 C/
   COPYR  = (c) Copyright 08Apr2002 Georg Kresse                                
   COPYR  = This file is part of the software VASP. Any use, copying, and all ot
   COPYR  = If you do not have a valid VASP license, you may not use, copy or di
   VRHFIN =C: s2p2                                                              
   LEXCH  = PE                                                                  
   EATOM  =   147.1560 eV,   10.8157 Ry                                         
                                                                                
   TITEL  = PAW_PBE C 08Apr2002                                                 
   LULTRA =        F    use ultrasoft PP ?                                      
   IUNSCR =        1    unscreen: 0-lin 1-nonlin 2-no                           
   RPACOR =    1.200    partial core radius                                     
   POMASS =   12.011; ZVAL   =    4.000    mass and valenz                      
   RCORE  =    1.500    outmost cutoff radius                                   
   RWIGS  =    1.630; RWIGS  =    0.863    wigner-seitz radius (au A)           
   ENMAX  =  400.000; ENMIN  =  300.000 eV                                      
   ICORE  =        2    local potential                                         
   LCOR   =        T    correct aug charges                                     
   LPAW   =        T    paw PP                                                  
   EAUG   =  644.873                                                            
   DEXC   =    0.000                                                            
   RMAX   =    1.529    core radius for proj-oper                               
   RAUG   =    1.300    factor for augmentation sphere                          
   RDEP   =    1.501    radius for radial grids                                 
   RDEPT  =    1.300    core radius for aug-charge                              
                                                                                
   Atomic configuration                                                         
    4 entries                                                                   
     n  l   j            E        occ.                                          
     1  0  0.50      -273.3789   2.0000                                         
     2  0  0.50       -13.7508   2.0000                                         
     2  1  0.50        -5.2854   2.0000                                         
     3  2  1.50        -5.4423   0.0000                                         
   Description                                                                  
     l       E           TYP  RCUT    TYP  RCUT                                 
     0    -13.7508458     23  1.200                                             
     0     -8.2022199     23  1.200                                             
     1     -5.2854383     23  1.500                                             
     1     34.0145650     23  1.500                                             
     2     -5.4423304      7  1.500                                             
  local pseudopotential read in
  partial core-charges read in
  partial kinetic energy density read in
  atomic valenz-charges read in
  non local Contribution for L=           0  read in
    real space projection operators read in
  non local Contribution for L=           0  read in
    real space projection operators read in
  non local Contribution for L=           1  read in
    real space projection operators read in
  non local Contribution for L=           1  read in
    real space projection operators read in
    PAW grid and wavefunctions read in
 
   number of l-projection  operators is LMAX  =           4
   number of lm-projection operators is LMMAX =           8
 
  PAW_PBE B 06Sep2000                   :
 energy of atom  1       EATOM=  -71.1703
 kinetic energy error for atom=    0.0015 (will be added to EATOM!!)
  PAW_PBE C 08Apr2002                   :
 energy of atom  2       EATOM= -147.1560
 kinetic energy error for atom=    0.0116 (will be added to EATOM!!)
 
 
 POSCAR: BC3                                     
  positions in direct lattice
  No initial velocities read in
 exchange correlation table for  LEXCH =        8
   RHO(1)=    0.500       N(1)  =     2000
   RHO(2)=  100.500       N(2)  =     4000
 


--------------------------------------------------------------------------------------------------------


 ion  position               nearest neighbor table
   1  0.333  0.667  0.250-   3 1.49   7 1.49   5 1.49
   2  0.667  0.333  0.250-   4 1.49   8 1.49   6 1.49
   3  0.167  0.333  0.250-   1 1.49   6 1.49   4 1.49
   4  0.333  0.167  0.250-   2 1.49   5 1.49   3 1.49
   5  0.167  0.833  0.250-   4 1.49   8 1.49   1 1.49
   6  0.833  0.167  0.250-   3 1.49   7 1.49   2 1.49
   7  0.667  0.833  0.250-   1 1.49   6 1.49   8 1.49
   8  0.833  0.667  0.250-   2 1.49   5 1.49   7 1.49
 
  LATTYP: Found a base centered orthorhombic cell.
 ALAT       =     5.1640000000
 B/A-ratio  =     1.7323780015
 C/A-ratio  =     2.9047250194
  
  Lattice vectors:
  
 A1 = (   4.4730000000,   2.5820000000,   0.0000000000)
 A2 = (  -4.4730000000,   2.5820000000,   0.0000000000)
 A3 = (   0.0000000000,   0.0000000000,  15.0000000000)


Analysis of symmetry for initial positions (statically):
=====================================================================
 Subroutine PRICEL returns:
 Original cell was already a primitive cell.
 

 Routine SETGRP: Setting up the symmetry group for a 
 base centered orthorhombic supercell.


 Subroutine GETGRP returns: Found  8 space group operations
 (whereof  4 operations were pure point group operations)
 out of a pool of  8 trial point group operations.


The static configuration has the point symmetry C_2v.
 The point group associated with its full space group is D_2h.


Analysis of symmetry for dynamics (positions and initial velocities):
=====================================================================
 Subroutine PRICEL returns:
 Original cell was already a primitive cell.
 

 Routine SETGRP: Setting up the symmetry group for a 
 base centered orthorhombic supercell.


 Subroutine GETGRP returns: Found  8 space group operations
 (whereof  4 operations were pure point group operations)
 out of a pool of  8 trial point group operations.


The dynamic configuration has the point symmetry C_2v.
 The point group associated with its full space group is D_2h.


 Subroutine INISYM returns: Found  8 space group operations
 (whereof  4 operations are pure point group operations),
 and found     1 'primitive' translations

 
 
 KPOINTS: K-points for BC3                        

Automatic generation of k-mesh.
Space group operators:
 irot       det(A)        alpha          n_x          n_y          n_z        tau_x        tau_y        tau_z
    1     1.000000     0.000000     1.000000     0.000000     0.000000     0.000000     0.000000     0.000000
    2     1.000000   180.000000     0.000000     0.000000     1.000000     0.000000     0.000000     0.000000
    3    -1.000000   180.000000     1.000000     0.000000     0.000000     0.000000     0.000000     0.000000
    4    -1.000000   179.999999     0.000000     1.000000     0.000000     0.000000     0.000000     0.000000
    5    -1.000000     0.000000     1.000000     0.000000     0.000000     0.000000     0.000000     0.500000
    6    -1.000000   180.000000     0.000000     0.000000     1.000000     0.000000     0.000000     0.500000
    7     1.000000   180.000000     1.000000     0.000000     0.000000     0.000000     0.000000     0.500000
    8     1.000000   179.999999     0.000000     1.000000     0.000000     0.000000     0.000000     0.500000
 
 Subroutine IBZKPT returns following result:
 ===========================================
 
 Found     43 irreducible k-points:
 
 Following reciprocal coordinates:
            Coordinates               Weight
  0.000000  0.000000  0.000000      1.000000
  0.083333  0.000000  0.000000      4.000000
  0.166667 -0.000000  0.000000      4.000000
  0.250000 -0.000000  0.000000      4.000000
  0.333333  0.000000  0.000000      4.000000
  0.416667 -0.000000  0.000000      4.000000
  0.500000 -0.000000  0.000000      2.000000
  0.083333  0.083333  0.000000      2.000000
  0.166667  0.083333  0.000000      4.000000
  0.250000  0.083333  0.000000      4.000000
  0.333333  0.083333  0.000000      4.000000
  0.416667  0.083333  0.000000      4.000000
  0.500000  0.083333  0.000000      4.000000
 -0.416667  0.083333  0.000000      4.000000
 -0.333333  0.083333  0.000000      4.000000
 -0.250000  0.083333  0.000000      4.000000
 -0.166667  0.083333  0.000000      4.000000
 -0.083333  0.083333  0.000000      2.000000
  0.166667  0.166667  0.000000      2.000000
  0.250000  0.166667  0.000000      4.000000
  0.333333  0.166667  0.000000      4.000000
  0.416667  0.166667  0.000000      4.000000
  0.500000  0.166667  0.000000      4.000000
 -0.416667  0.166667  0.000000      4.000000
 -0.333333  0.166667  0.000000      4.000000
 -0.250000  0.166667  0.000000      4.000000
 -0.166667  0.166667  0.000000      2.000000
  0.250000  0.250000  0.000000      2.000000
  0.333333  0.250000  0.000000      4.000000
  0.416667  0.250000  0.000000      4.000000
  0.500000  0.250000  0.000000      4.000000
 -0.416667  0.250000  0.000000      4.000000
 -0.333333  0.250000  0.000000      4.000000
 -0.250000  0.250000  0.000000      2.000000
  0.333333  0.333333  0.000000      2.000000
  0.416667  0.333333  0.000000      4.000000
  0.500000  0.333333  0.000000      4.000000
 -0.416667  0.333333  0.000000      4.000000
 -0.333333  0.333333  0.000000      2.000000
  0.416667  0.416667  0.000000      2.000000
  0.500000  0.416667  0.000000      4.000000
 -0.416667  0.416667  0.000000      2.000000
  0.500000  0.500000  0.000000      1.000000
 
 Following cartesian coordinates:
            Coordinates               Weight
  0.000000  0.000000  0.000000      1.000000
  0.009315  0.016137  0.000000      4.000000
  0.018630  0.032275  0.000000      4.000000
  0.027945  0.048412  0.000000      4.000000
  0.037261  0.064549  0.000000      4.000000
  0.046576  0.080687  0.000000      4.000000
  0.055891  0.096824  0.000000      2.000000
  0.000000  0.032275  0.000000      2.000000
  0.009315  0.048412  0.000000      4.000000
  0.018630  0.064549  0.000000      4.000000
  0.027945  0.080687  0.000000      4.000000
  0.037261  0.096824  0.000000      4.000000
  0.046576  0.112962  0.000000      4.000000
 -0.055891 -0.064549  0.000000      4.000000
 -0.046576 -0.048412  0.000000      4.000000
 -0.037261 -0.032275  0.000000      4.000000
 -0.027945 -0.016137  0.000000      4.000000
 -0.018630  0.000000  0.000000      2.000000
  0.000000  0.064549  0.000000      2.000000
  0.009315  0.080687  0.000000      4.000000
  0.018630  0.096824  0.000000      4.000000
  0.027945  0.112962  0.000000      4.000000
  0.037261  0.129099  0.000000      4.000000
 -0.065206 -0.048412  0.000000      4.000000
 -0.055891 -0.032275  0.000000      4.000000
 -0.046576 -0.016137  0.000000      4.000000
 -0.037261  0.000000  0.000000      2.000000
  0.000000  0.096824  0.000000      2.000000
  0.009315  0.112962  0.000000      4.000000
  0.018630  0.129099  0.000000      4.000000
  0.027945  0.145236  0.000000      4.000000
 -0.074521 -0.032275  0.000000      4.000000
 -0.065206 -0.016137  0.000000      4.000000
 -0.055891  0.000000  0.000000      2.000000
  0.000000  0.129099  0.000000      2.000000
  0.009315  0.145236  0.000000      4.000000
  0.018630  0.161374  0.000000      4.000000
 -0.083836 -0.016137  0.000000      4.000000
 -0.074521  0.000000  0.000000      2.000000
  0.000000  0.161374  0.000000      2.000000
  0.009315  0.177511  0.000000      4.000000
 -0.093152  0.000000  0.000000      2.000000
  0.000000  0.193648  0.000000      1.000000
 


--------------------------------------------------------------------------------------------------------




 Dimension of arrays:
   k-points           NKPTS =     43   k-points in BZ     NKDIM =     43   number of bands    NBANDS=     24
   number of dos      NEDOS =    301   number of ions     NIONS =      8
   non local maximal  LDIM  =      4   non local SUM 2l+1 LMDIM =      8
   total plane-waves  NPLWV = 139968
   max r-space proj   IRMAX =      1   max aug-charges    IRDMAX=   6498
   dimension x,y,z NGX =    36 NGY =   36 NGZ =  108
   dimension x,y,z NGXF=    72 NGYF=   72 NGZF=  216
   support grid    NGXF=    72 NGYF=   72 NGZF=  216
   ions per type =               2   6
   NGX,Y,Z   is equivalent  to a cutoff of  11.59, 11.59, 11.97 a.u.
   NGXF,Y,Z  is equivalent  to a cutoff of  23.18, 23.18, 23.94 a.u.

 SYSTEM =  BC3                                     
 POSCAR =  BC3                                     

 Startparameter for this run:
   NWRITE =      2    write-flag & timer
   PREC   = accura    normal or accurate (medium, high low for compatibility)
   ISTART =      0    job   : 0-new  1-cont  2-samecut
   ICHARG =      2    charge: 1-file 2-atom 10-const
   ISPIN  =      1    spin polarized calculation?
   LNONCOLLINEAR =      F non collinear calculations
   LSORBIT =      F    spin-orbit coupling
   INIWAV =      1    electr: 0-lowe 1-rand  2-diag
   LASPH  =      F    aspherical Exc in radial PAW
   METAGGA=      F    non-selfconsistent MetaGGA calc.

 Electronic Relaxation 1
   ENCUT  =  450.0 eV  33.07 Ry    5.75 a.u.   8.93  8.93 25.95*2*pi/ulx,y,z
   ENINI  =  450.0     initial cutoff
   ENAUG  =  644.9 eV  augmentation charge cutoff
   NELM   =     60;   NELMIN=  2; NELMDL= -5     # of ELM steps 
   EDIFF  = 0.1E-05   stopping-criterion for ELM
   LREAL  =      F    real-space projection
   NLSPLINE    = F    spline interpolate recip. space projectors
   LCOMPAT=      F    compatible to vasp.4.4
   GGA_COMPAT  = T    GGA compatible to vasp.4.4-vasp.4.6
   LMAXPAW     = -100 max onsite density
   LMAXMIX     =    2 max onsite mixed and CHGCAR
   VOSKOWN=      0    Vosko Wilk Nusair interpolation
   ROPT   =    0.00000   0.00000
 Ionic relaxation
   EDIFFG = -.1E-02   stopping-criterion for IOM
   NSW    =      0    number of steps for IOM
   NBLOCK =      1;   KBLOCK =      1    inner block; outer block 
   IBRION =     -1    ionic relax: 0-MD 1-quasi-New 2-CG
   NFREE  =      0    steps in history (QN), initial steepest desc. (CG)
   ISIF   =      2    stress and relaxation
   IWAVPR =     10    prediction:  0-non 1-charg 2-wave 3-comb
   ISYM   =      2    0-nonsym 1-usesym 2-fastsym
   LCORR  =      T    Harris-Foulkes like correction to forces

   POTIM  = 0.5000    time-step for ionic-motion
   TEIN   =    0.0    initial temperature
   TEBEG  =    0.0;   TEEND  =   0.0 temperature during run
   SMASS  =  -3.00    Nose mass-parameter (am)
   estimated Nose-frequenzy (Omega)   =  0.10E-29 period in steps =****** mass=  -0.610E-27a.u.
   SCALEE = 1.0000    scale energy and forces
   NPACO  =    256;   APACO  = 16.0  distance and # of slots for P.C.
   PSTRESS=    0.0 pullay stress

  Mass of Ions in am
   POMASS =  10.81 12.01
  Ionic Valenz
   ZVAL   =   3.00  4.00
  Atomic Wigner-Seitz radii
   RWIGS  =  -1.00 -1.00
  virtual crystal weights 
   VCA    =   1.00  1.00
   NELECT =      30.0000    total number of electrons
   NUPDOWN=      -1.0000    fix difference up-down

 DOS related values:
   EMIN   =  10.00;   EMAX   =-10.00  energy-range for DOS
   EFERMI =   0.00
   ISMEAR =     0;   SIGMA  =   0.10  broadening in eV -4-tet -1-fermi 0-gaus

 Electronic relaxation 2 (details)
   IALGO  =     38    algorithm
   LDIAG  =      T    sub-space diagonalisation (order eigenvalues)
   LSUBROT=      F    optimize rotation matrix (better conditioning)
   TURBO    =      0    0=normal 1=particle mesh
   IRESTART =      0    0=no restart 2=restart with 2 vectors
   NREBOOT  =      0    no. of reboots
   NMIN     =      0    reboot dimension
   EREF     =   0.00    reference energy to select bands
   IMIX   =      4    mixing-type and parameters
     AMIX     =   0.40;   BMIX     =  1.00
     AMIX_MAG =   1.60;   BMIX_MAG =  1.00
     AMIN     =   0.10
     WC   =   100.;   INIMIX=   1;  MIXPRE=   1;  MAXMIX= -45

 Intra band minimization:
   WEIMIN = 0.0000     energy-eigenvalue tresh-hold
   EBREAK =  0.10E-07  absolut break condition
   DEPER  =   0.30     relativ break condition  

   TIME   =   0.40     timestep for ELM

  volume/ion in A,a.u.               =      43.31       292.27
  Fermi-wavevector in a.u.,A,eV,Ry     =   0.724252  1.368638  7.136816  0.524541
  Thomas-Fermi vector in A             =   1.814675
 
 Write flags
   LWAVE        =      T    write WAVECAR
   LDOWNSAMPLE  =      F    k-point downsampling of WAVECAR
   LCHARG       =      T    write CHGCAR
   LVTOT        =      F    write LOCPOT, total local potential
   LVHAR        =      F    write LOCPOT, Hartree potential only
   LELF         =      F    write electronic localiz. function (ELF)
   LORBIT       =      0    0 simple, 1 ext, 2 COOP (PROOUT), +10 PAW based schemes


 Dipole corrections
   LMONO  =      F    monopole corrections only (constant potential shift)
   LDIPOL =      F    correct potential (dipole corrections)
   IDIPOL =      0    1-x, 2-y, 3-z, 4-all directions 
   EPSILON=  1.0000000 bulk dielectric constant

 Exchange correlation treatment:
   GGA     =    --    GGA type
   LEXCH   =     8    internal setting for exchange type
   VOSKOWN=      0    Vosko Wilk Nusair interpolation
   LHFCALC =     F    Hartree Fock is set to
   LHFONE  =     F    Hartree Fock one center treatment
   AEXX    =    0.0000 exact exchange contribution

 Linear response parameters
   LEPSILON=     F    determine dielectric tensor
   LRPA    =     F    only Hartree local field effects (RPA)
   LNABLA  =     F    use nabla operator in PAW spheres
   LVEL    =     F    velocity operator in full k-point grid
   LINTERFAST=   F  fast interpolation
   KINTER  =     0    interpolate to denser k-point grid
   CSHIFT  =0.1000    complex shift for real part using Kramers Kronig
   OMEGAMAX=  -1.0    maximum frequency
   DEG_THRESHOLD= 0.2000000E-02 threshold for treating states as degnerate
   RTIME   =   -0.100 relaxation time in fs
  (WPLASMAI=    0.000 imaginary part of plasma frequency in eV, 0.658/RTIME)
   DFIELD  = 0.0000000 0.0000000 0.0000000 field for delta impulse in time
 
 Orbital magnetization related:
   ORBITALMAG=     F  switch on orbital magnetization
   LCHIMAG   =     F  perturbation theory with respect to B field
   DQ        =  0.001000  dq finite difference perturbation B field
   LLRAUG    =     F  two centre corrections for induced B field



--------------------------------------------------------------------------------------------------------


 Static calculation
 charge density and potential will be updated during run
 non-spin polarized calculation
 Variant of blocked Davidson
 Davidson routine will perform the subspace rotation
 perform sub-space diagonalisation
    after iterative eigenvector-optimisation
 modified Broyden-mixing scheme, WC =      100.0
 initial mixing is a Kerker type mixing with AMIX =  0.4000 and BMIX =      1.0000
 Hartree-type preconditioning will be used
 using additional bands            9
 reciprocal scheme for non local part
 use partial core corrections
 calculate Harris-corrections to forces 
   (improved forces if not selfconsistent)
 use gradient corrections 
 use of overlap-Matrix (Vanderbilt PP)
 Gauss-broadening in eV      SIGMA  =   0.10


--------------------------------------------------------------------------------------------------------


  energy-cutoff  :      450.00
  volume of cell :      346.48
      direct lattice vectors                 reciprocal lattice vectors
     4.473000000  2.582000000  0.000000000     0.111781802  0.193648335  0.000000000
    -4.473000000  2.582000000  0.000000000    -0.111781802  0.193648335  0.000000000
     0.000000000  0.000000000 15.000000000     0.000000000  0.000000000  0.066666667

  length of vectors
     5.164731648  5.164731648 15.000000000     0.223595279  0.223595279  0.066666667


 
 k-points in units of 2pi/SCALE and weight: K-points for BC3                        
   0.00000000  0.00000000  0.00000000       0.007
   0.00931515  0.01613736  0.00000000       0.028
   0.01863030  0.03227472  0.00000000       0.028
   0.02794545  0.04841208  0.00000000       0.028
   0.03726060  0.06454944  0.00000000       0.028
   0.04657575  0.08068681  0.00000000       0.028
   0.05589090  0.09682417  0.00000000       0.014
   0.00000000  0.03227472  0.00000000       0.014
   0.00931515  0.04841208  0.00000000       0.028
   0.01863030  0.06454944  0.00000000       0.028
   0.02794545  0.08068681  0.00000000       0.028
   0.03726060  0.09682417  0.00000000       0.028
   0.04657575  0.11296153  0.00000000       0.028
  -0.05589090 -0.06454944  0.00000000       0.028
  -0.04657575 -0.04841208  0.00000000       0.028
  -0.03726060 -0.03227472  0.00000000       0.028
  -0.02794545 -0.01613736  0.00000000       0.028
  -0.01863030  0.00000000  0.00000000       0.014
   0.00000000  0.06454944  0.00000000       0.014
   0.00931515  0.08068681  0.00000000       0.028
   0.01863030  0.09682417  0.00000000       0.028
   0.02794545  0.11296153  0.00000000       0.028
   0.03726060  0.12909889  0.00000000       0.028
  -0.06520605 -0.04841208  0.00000000       0.028
  -0.05589090 -0.03227472  0.00000000       0.028
  -0.04657575 -0.01613736  0.00000000       0.028
  -0.03726060  0.00000000  0.00000000       0.014
   0.00000000  0.09682417  0.00000000       0.014
   0.00931515  0.11296153  0.00000000       0.028
   0.01863030  0.12909889  0.00000000       0.028
   0.02794545  0.14523625  0.00000000       0.028
  -0.07452120 -0.03227472  0.00000000       0.028
  -0.06520605 -0.01613736  0.00000000       0.028
  -0.05589090  0.00000000  0.00000000       0.014
   0.00000000  0.12909889  0.00000000       0.014
   0.00931515  0.14523625  0.00000000       0.028
   0.01863030  0.16137361  0.00000000       0.028
  -0.08383635 -0.01613736  0.00000000       0.028
  -0.07452120  0.00000000  0.00000000       0.014
   0.00000000  0.16137361  0.00000000       0.014
   0.00931515  0.17751097  0.00000000       0.028
  -0.09315150  0.00000000  0.00000000       0.014
   0.00000000  0.19364833  0.00000000       0.007
 
 k-points in reciprocal lattice and weights: K-points for BC3                        
   0.00000000  0.00000000  0.00000000       0.007
   0.08333333  0.00000000  0.00000000       0.028
   0.16666667 -0.00000000  0.00000000       0.028
   0.25000000 -0.00000000  0.00000000       0.028
   0.33333333  0.00000000  0.00000000       0.028
   0.41666667 -0.00000000  0.00000000       0.028
   0.50000000 -0.00000000  0.00000000       0.014
   0.08333333  0.08333333  0.00000000       0.014
   0.16666667  0.08333333  0.00000000       0.028
   0.25000000  0.08333333  0.00000000       0.028
   0.33333333  0.08333333  0.00000000       0.028
   0.41666667  0.08333333  0.00000000       0.028
   0.50000000  0.08333333  0.00000000       0.028
  -0.41666667  0.08333333  0.00000000       0.028
  -0.33333333  0.08333333  0.00000000       0.028
  -0.25000000  0.08333333  0.00000000       0.028
  -0.16666667  0.08333333  0.00000000       0.028
  -0.08333333  0.08333333  0.00000000       0.014
   0.16666667  0.16666667  0.00000000       0.014
   0.25000000  0.16666667  0.00000000       0.028
   0.33333333  0.16666667  0.00000000       0.028
   0.41666667  0.16666667  0.00000000       0.028
   0.50000000  0.16666667  0.00000000       0.028
  -0.41666667  0.16666667  0.00000000       0.028
  -0.33333333  0.16666667  0.00000000       0.028
  -0.25000000  0.16666667  0.00000000       0.028
  -0.16666667  0.16666667  0.00000000       0.014
   0.25000000  0.25000000  0.00000000       0.014
   0.33333333  0.25000000  0.00000000       0.028
   0.41666667  0.25000000  0.00000000       0.028
   0.50000000  0.25000000  0.00000000       0.028
  -0.41666667  0.25000000  0.00000000       0.028
  -0.33333333  0.25000000  0.00000000       0.028
  -0.25000000  0.25000000  0.00000000       0.014
   0.33333333  0.33333333  0.00000000       0.014
   0.41666667  0.33333333  0.00000000       0.028
   0.50000000  0.33333333  0.00000000       0.028
  -0.41666667  0.33333333  0.00000000       0.028
  -0.33333333  0.33333333  0.00000000       0.014
   0.41666667  0.41666667  0.00000000       0.014
   0.50000000  0.41666667  0.00000000       0.028
  -0.41666667  0.41666667  0.00000000       0.014
   0.50000000  0.50000000  0.00000000       0.007
 
 position of ions in fractional coordinates (direct lattice) 
   0.33333300  0.66666600  0.25000000
   0.66666600  0.33333300  0.25000000
   0.16666600  0.33333300  0.25000000
   0.33333300  0.16666600  0.25000000
   0.16666600  0.83333300  0.25000000
   0.83333300  0.16666600  0.25000000
   0.66666600  0.83333300  0.25000000
   0.83333300  0.66666600  0.25000000
 
 position of ions in cartesian coordinates  (Angst):
  -1.49099851  2.58199742  3.75000000
   1.49099851  2.58199742  3.75000000
  -0.74550149  1.29099742  3.75000000
   0.74550149  1.29099742  3.75000000
  -2.98200149  2.58199742  3.75000000
   2.98200149  2.58199742  3.75000000
  -0.74550149  3.87299742  3.75000000
   0.74550149  3.87299742  3.75000000
 


--------------------------------------------------------------------------------------------------------


 k-point  1 :   0.0000 0.0000 0.0000  plane waves:    7497
 k-point  2 :   0.0833 0.0000 0.0000  plane waves:    7488
 k-point  3 :   0.1667-0.0000 0.0000  plane waves:    7499
 k-point  4 :   0.2500-0.0000 0.0000  plane waves:    7495
 k-point  5 :   0.3333 0.0000 0.0000  plane waves:    7522
 k-point  6 :   0.4167-0.0000 0.0000  plane waves:    7518
 k-point  7 :   0.5000-0.0000 0.0000  plane waves:    7508
 k-point  8 :   0.0833 0.0833 0.0000  plane waves:    7497
 k-point  9 :   0.1667 0.0833 0.0000  plane waves:    7488
 k-point 10 :   0.2500 0.0833 0.0000  plane waves:    7501
 k-point 11 :   0.3333 0.0833 0.0000  plane waves:    7501
 k-point 12 :   0.4167 0.0833 0.0000  plane waves:    7514
 k-point 13 :   0.5000 0.0833 0.0000  plane waves:    7514
 k-point 14 :  -0.4167 0.0833 0.0000  plane waves:    7501
 k-point 15 :  -0.3333 0.0833 0.0000  plane waves:    7497
 k-point 16 :  -0.2500 0.0833 0.0000  plane waves:    7486
 k-point 17 :  -0.1667 0.0833 0.0000  plane waves:    7497
 k-point 18 :  -0.0833 0.0833 0.0000  plane waves:    7487
 k-point 19 :   0.1667 0.1667 0.0000  plane waves:    7511
 k-point 20 :   0.2500 0.1667 0.0000  plane waves:    7510
 k-point 21 :   0.3333 0.1667 0.0000  plane waves:    7520
 k-point 22 :   0.4167 0.1667 0.0000  plane waves:    7529
 k-point 23 :   0.5000 0.1667 0.0000  plane waves:    7520
 k-point 24 :  -0.4167 0.1667 0.0000  plane waves:    7512
 k-point 25 :  -0.3333 0.1667 0.0000  plane waves:    7509
 k-point 26 :  -0.2500 0.1667 0.0000  plane waves:    7486
 k-point 27 :  -0.1667 0.1667 0.0000  plane waves:    7499
 k-point 28 :   0.2500 0.2500 0.0000  plane waves:    7509
 k-point 29 :   0.3333 0.2500 0.0000  plane waves:    7527
 k-point 30 :   0.4167 0.2500 0.0000  plane waves:    7527
 k-point 31 :   0.5000 0.2500 0.0000  plane waves:    7509
 k-point 32 :  -0.4167 0.2500 0.0000  plane waves:    7510
 k-point 33 :  -0.3333 0.2500 0.0000  plane waves:    7494
 k-point 34 :  -0.2500 0.2500 0.0000  plane waves:    7495
 k-point 35 :   0.3333 0.3333 0.0000  plane waves:    7545
 k-point 36 :   0.4167 0.3333 0.0000  plane waves:    7527
 k-point 37 :   0.5000 0.3333 0.0000  plane waves:    7520
 k-point 38 :  -0.4167 0.3333 0.0000  plane waves:    7501
 k-point 39 :  -0.3333 0.3333 0.0000  plane waves:    7522
 k-point 40 :   0.4167 0.4167 0.0000  plane waves:    7529
 k-point 41 :   0.5000 0.4167 0.0000  plane waves:    7514
 k-point 42 :  -0.4167 0.4167 0.0000  plane waves:    7516
 k-point 43 :   0.5000 0.5000 0.0000  plane waves:    7504

 maximum and minimum number of plane-waves per node :      7545     7486

 maximum number of plane-waves:      7545
 maximum index in each direction: 
   IXMAX=    9   IYMAX=    8   IZMAX=   25
   IXMIN=   -9   IYMIN=   -9   IZMIN=  -25


 serial   3D FFT for wavefunctions
 parallel 3D FFT for charge:
    minimum data exchange during FFTs selected (reduces bandwidth)


 total amount of memory used by VASP MPI-rank0    97625. kBytes
=======================================================================

   base      :      30000. kBytes
   nonl-proj :      42510. kBytes
   fftplans  :       3727. kBytes
   grid      :      10879. kBytes
   one-center:         24. kBytes
   wavefun   :      10485. kBytes
 
     INWAV:  cpu time    0.0000: real time    0.0000
 Broyden mixing: mesh for mixing (old mesh)
   NGX = 17   NGY = 17   NGZ = 51
  (NGX  = 72   NGY  = 72   NGZ  =216)
  gives a total of  14739 points

 initial charge density was supplied:
 charge density of overlapping atoms calculated
 number of electron      30.0000000 magnetization 
 keeping initial charge density in first step


--------------------------------------------------------------------------------------------------------


 Maximum index for augmentation-charges          409 (set IRDMAX)


--------------------------------------------------------------------------------------------------------


 First call to EWALD:  gamma=   0.252
 Maximum number of real-space cells 4x 4x 2
 Maximum number of reciprocal cells 2x 2x 5

    FEWALD:  cpu time    0.0019: real time    0.0021


--------------------------------------- Iteration      1(   1)  ---------------------------------------


    POTLOK:  cpu time    0.1162: real time    0.1169
    SETDIJ:  cpu time    0.0024: real time    0.0024
     EDDAV:  cpu time    4.9052: real time    4.9112
       DOS:  cpu time    0.0008: real time    0.0008
    --------------------------------------------
      LOOP:  cpu time    5.0246: real time    5.0314

 eigenvalue-minimisations  :  2064
 total energy-change (2. order) : 0.2159166E+03  (-0.1051518E+04)
 number of electron      30.0000000 magnetization 
 augmentation part       30.0000000 magnetization 

 Free energy of the ion-electron system (eV)
  ---------------------------------------------------
  alpha Z        PSCENC =        14.64016667
  Ewald energy   TEWEN  =      2593.16580357
  -Hartree energ DENC   =     -3354.31385078
  -exchange      EXHF   =         0.00000000
  -V(xc)+E(xc)   XCENC  =        90.91428725
  PAW double counting   =       738.13200929     -739.83780425
  entropy T*S    EENTRO =        -0.01025996
  eigenvalues    EBANDS =      -151.97768630
  atomic energy  EATOM  =      1025.20389953
  Solvation  Ediel_sol  =         0.00000000
  ---------------------------------------------------
  free energy    TOTEN  =       215.91656503 eV

  energy without entropy =      215.92682499  energy(sigma->0) =      215.92169501


--------------------------------------------------------------------------------------------------------




--------------------------------------- Iteration      1(   2)  ---------------------------------------


     EDDAV:  cpu time    6.4914: real time    6.4973
       DOS:  cpu time    0.0007: real time    0.0007
    --------------------------------------------
      LOOP:  cpu time    6.4921: real time    6.4980

 eigenvalue-minimisations  :  3024
 total energy-change (2. order) :-0.2564346E+03  (-0.2420100E+03)
 number of electron      30.0000000 magnetization 
 augmentation part       30.0000000 magnetization 

 Free energy of the ion-electron system (eV)
  ---------------------------------------------------
  alpha Z        PSCENC =        14.64016667
  Ewald energy   TEWEN  =      2593.16580357
  -Hartree energ DENC   =     -3354.31385078
  -exchange      EXHF   =         0.00000000
  -V(xc)+E(xc)   XCENC  =        90.91428725
  PAW double counting   =       738.13200929     -739.83780425
  entropy T*S    EENTRO =        -0.00277733
  eigenvalues    EBANDS =      -408.41978453
  atomic energy  EATOM  =      1025.20389953
  Solvation  Ediel_sol  =         0.00000000
  ---------------------------------------------------
  free energy    TOTEN  =       -40.51805058 eV

  energy without entropy =      -40.51527325  energy(sigma->0) =      -40.51666191


--------------------------------------------------------------------------------------------------------




--------------------------------------- Iteration      1(   3)  ---------------------------------------


     EDDAV:  cpu time    5.9591: real time    5.9675
       DOS:  cpu time    0.0004: real time    0.0004
    --------------------------------------------
      LOOP:  cpu time    5.9595: real time    5.9679

 eigenvalue-minimisations  :  2700
 total energy-change (2. order) :-0.3101228E+02  (-0.3078122E+02)
 number of electron      30.0000000 magnetization 
 augmentation part       30.0000000 magnetization 

 Free energy of the ion-electron system (eV)
  ---------------------------------------------------
  alpha Z        PSCENC =        14.64016667
  Ewald energy   TEWEN  =      2593.16580357
  -Hartree energ DENC   =     -3354.31385078
  -exchange      EXHF   =         0.00000000
  -V(xc)+E(xc)   XCENC  =        90.91428725
  PAW double counting   =       738.13200929     -739.83780425
  entropy T*S    EENTRO =        -0.00000000
  eigenvalues    EBANDS =      -439.43484223
  atomic energy  EATOM  =      1025.20389953
  Solvation  Ediel_sol  =         0.00000000
  ---------------------------------------------------
  free energy    TOTEN  =       -71.53033094 eV

  energy without entropy =      -71.53033094  energy(sigma->0) =      -71.53033094


--------------------------------------------------------------------------------------------------------




--------------------------------------- Iteration      1(   4)  ---------------------------------------


     EDDAV:  cpu time    6.3733: real time    6.3809
       DOS:  cpu time    0.0005: real time    0.0005
    --------------------------------------------
      LOOP:  cpu time    6.3738: real time    6.3813

 eigenvalue-minimisations  :  2952
 total energy-change (2. order) :-0.6826281E+00  (-0.6806963E+00)
 number of electron      30.0000000 magnetization 
 augmentation part       30.0000000 magnetization 

 Free energy of the ion-electron system (eV)
  ---------------------------------------------------
  alpha Z        PSCENC =        14.64016667
  Ewald energy   TEWEN  =      2593.16580357
  -Hartree energ DENC   =     -3354.31385078
  -exchange      EXHF   =         0.00000000
  -V(xc)+E(xc)   XCENC  =        90.91428725
  PAW double counting   =       738.13200929     -739.83780425
  entropy T*S    EENTRO =        -0.00000000
  eigenvalues    EBANDS =      -440.11747035
  atomic energy  EATOM  =      1025.20389953
  Solvation  Ediel_sol  =         0.00000000
  ---------------------------------------------------
  free energy    TOTEN  =       -72.21295906 eV

  energy without entropy =      -72.21295906  energy(sigma->0) =      -72.21295906


--------------------------------------------------------------------------------------------------------




--------------------------------------- Iteration      1(   5)  ---------------------------------------


     EDDAV:  cpu time    6.0825: real time    6.0885
       DOS:  cpu time    0.0005: real time    0.0005
    CHARGE:  cpu time    0.3848: real time    0.3848
    MIXING:  cpu time    0.0028: real time    0.0029
    --------------------------------------------
      LOOP:  cpu time    6.4706: real time    6.4766

 eigenvalue-minimisations  :  2784
 total energy-change (2. order) :-0.2144506E-01  (-0.2142016E-01)
 number of electron      30.0000012 magnetization 
 augmentation part        0.5456369 magnetization 

 Broyden mixing:
  rms(total) = 0.12891E+01    rms(broyden)= 0.12888E+01
  rms(prec ) = 0.14626E+01
  weight for this iteration     100.00

 Free energy of the ion-electron system (eV)
  ---------------------------------------------------
  alpha Z        PSCENC =        14.64016667
  Ewald energy   TEWEN  =      2593.16580357
  -Hartree energ DENC   =     -3354.31385078
  -exchange      EXHF   =         0.00000000
  -V(xc)+E(xc)   XCENC  =        90.91428725
  PAW double counting   =       738.13200929     -739.83780425
  entropy T*S    EENTRO =        -0.00000000
  eigenvalues    EBANDS =      -440.13891541
  atomic energy  EATOM  =      1025.20389953
  Solvation  Ediel_sol  =         0.00000000
  ---------------------------------------------------
  free energy    TOTEN  =       -72.23440412 eV

  energy without entropy =      -72.23440412  energy(sigma->0) =      -72.23440412


--------------------------------------------------------------------------------------------------------




--------------------------------------- Iteration      1(   6)  ---------------------------------------


    POTLOK:  cpu time    0.1079: real time    0.1085
    SETDIJ:  cpu time    0.0022: real time    0.0022
     EDDAV:  cpu time    6.1707: real time    6.1767
       DOS:  cpu time    0.0005: real time    0.0005
    CHARGE:  cpu time    0.3855: real time    0.3861
    MIXING:  cpu time    0.0030: real time    0.0030
    --------------------------------------------
      LOOP:  cpu time    6.6698: real time    6.6770

 eigenvalue-minimisations  :  2844
 total energy-change (2. order) : 0.4127350E+01  (-0.3482789E+00)
 number of electron      30.0000012 magnetization 
 augmentation part        0.5129102 magnetization 

 Broyden mixing:
  rms(total) = 0.74017E+00    rms(broyden)= 0.74013E+00
  rms(prec ) = 0.83443E+00
  weight for this iteration     100.00

 eigenvalues of (default mixing * dielectric matrix)
  average eigenvalue GAMMA=   2.1874
  2.1874

 Free energy of the ion-electron system (eV)
  ---------------------------------------------------
  alpha Z        PSCENC =        14.64016667
  Ewald energy   TEWEN  =      2593.16580357
  -Hartree energ DENC   =     -3396.58181330
  -exchange      EXHF   =         0.00000000
  -V(xc)+E(xc)   XCENC  =        92.75139407
  PAW double counting   =      1364.97888534    -1367.21962560
  entropy T*S    EENTRO =        -0.00000001
  eigenvalues    EBANDS =      -395.04576412
  atomic energy  EATOM  =      1025.20389953
  Solvation  Ediel_sol  =         0.00000000
  ---------------------------------------------------
  free energy    TOTEN  =       -68.10705385 eV

  energy without entropy =      -68.10705383  energy(sigma->0) =      -68.10705384


--------------------------------------------------------------------------------------------------------




--------------------------------------- Iteration      1(   7)  ---------------------------------------


    POTLOK:  cpu time    0.1069: real time    0.1070
    SETDIJ:  cpu time    0.0023: real time    0.0023
     EDDAV:  cpu time    6.5199: real time    6.5254
       DOS:  cpu time    0.0007: real time    0.0007
    CHARGE:  cpu time    0.3830: real time    0.3838
    MIXING:  cpu time    0.0030: real time    0.0030
    --------------------------------------------
      LOOP:  cpu time    7.0157: real time    7.0221

 eigenvalue-minimisations  :  3048
 total energy-change (2. order) : 0.1754232E+01  (-0.4916177E+00)
 number of electron      30.0000011 magnetization 
 augmentation part        0.4752082 magnetization 

 Broyden mixing:
  rms(total) = 0.16704E+00    rms(broyden)= 0.16692E+00
  rms(prec ) = 0.18673E+00
  weight for this iteration     100.00

 eigenvalues of (default mixing * dielectric matrix)
  average eigenvalue GAMMA=   2.1934
  2.1934  2.1934

 Free energy of the ion-electron system (eV)
  ---------------------------------------------------
  alpha Z        PSCENC =        14.64016667
  Ewald energy   TEWEN  =      2593.16580357
  -Hartree energ DENC   =     -3454.77110319
  -exchange      EXHF   =         0.00000000
  -V(xc)+E(xc)   XCENC  =        95.28986116
  PAW double counting   =      2596.57614408    -2599.29668022
  entropy T*S    EENTRO =        -0.00006313
  eigenvalues    EBANDS =      -337.16085073
  atomic energy  EATOM  =      1025.20389953
  Solvation  Ediel_sol  =         0.00000000
  ---------------------------------------------------
  free energy    TOTEN  =       -66.35282225 eV

  energy without entropy =      -66.35275912  energy(sigma->0) =      -66.35279069


--------------------------------------------------------------------------------------------------------




--------------------------------------- Iteration      1(   8)  ---------------------------------------


    POTLOK:  cpu time    0.1088: real time    0.1091
    SETDIJ:  cpu time    0.0022: real time    0.0023
     EDDAV:  cpu time    6.3074: real time    6.3139
       DOS:  cpu time    0.0007: real time    0.0007
    CHARGE:  cpu time    0.3847: real time    0.3855
    MIXING:  cpu time    0.0030: real time    0.0030
    --------------------------------------------
      LOOP:  cpu time    6.8068: real time    6.8145

 eigenvalue-minimisations  :  2928
 total energy-change (2. order) : 0.3706555E-01  (-0.1366566E-01)
 number of electron      30.0000011 magnetization 
 augmentation part        0.4722218 magnetization 

 Broyden mixing:
  rms(total) = 0.24561E-01    rms(broyden)= 0.24540E-01
  rms(prec ) = 0.54174E-01
  weight for this iteration     100.00

 eigenvalues of (default mixing * dielectric matrix)
  average eigenvalue GAMMA=   1.8553
  1.0579  2.2540  2.2540

 Free energy of the ion-electron system (eV)
  ---------------------------------------------------
  alpha Z        PSCENC =        14.64016667
  Ewald energy   TEWEN  =      2593.16580357
  -Hartree energ DENC   =     -3464.30376736
  -exchange      EXHF   =         0.00000000
  -V(xc)+E(xc)   XCENC  =        95.39481625
  PAW double counting   =      2869.77221754    -2872.32267208
  entropy T*S    EENTRO =        -0.00006462
  eigenvalues    EBANDS =      -327.86615620
  atomic energy  EATOM  =      1025.20389953
  Solvation  Ediel_sol  =         0.00000000
  ---------------------------------------------------
  free energy    TOTEN  =       -66.31575670 eV

  energy without entropy =      -66.31569208  energy(sigma->0) =      -66.31572439


--------------------------------------------------------------------------------------------------------




--------------------------------------- Iteration      1(   9)  ---------------------------------------


    POTLOK:  cpu time    0.1091: real time    0.1093
    SETDIJ:  cpu time    0.0023: real time    0.0023
     EDDAV:  cpu time    5.7897: real time    5.7937
       DOS:  cpu time    0.0007: real time    0.0007
    CHARGE:  cpu time    0.3831: real time    0.3839
    MIXING:  cpu time    0.0032: real time    0.0032
    --------------------------------------------
      LOOP:  cpu time    6.2880: real time    6.2930

 eigenvalue-minimisations  :  2616
 total energy-change (2. order) : 0.1000495E-01  (-0.6982288E-03)
 number of electron      30.0000011 magnetization 
 augmentation part        0.4713726 magnetization 

 Broyden mixing:
  rms(total) = 0.16457E-01    rms(broyden)= 0.16454E-01
  rms(prec ) = 0.40678E-01
  weight for this iteration     100.00

 eigenvalues of (default mixing * dielectric matrix)
  average eigenvalue GAMMA=   1.9711
  1.0864  2.4850  2.4850  1.8281

 Free energy of the ion-electron system (eV)
  ---------------------------------------------------
  alpha Z        PSCENC =        14.64016667
  Ewald energy   TEWEN  =      2593.16580357
  -Hartree energ DENC   =     -3469.07181175
  -exchange      EXHF   =         0.00000000
  -V(xc)+E(xc)   XCENC  =        95.47475379
  PAW double counting   =      2897.62456585    -2900.15828274
  entropy T*S    EENTRO =        -0.00009290
  eigenvalues    EBANDS =      -323.18475377
  atomic energy  EATOM  =      1025.20389953
  Solvation  Ediel_sol  =         0.00000000
  ---------------------------------------------------
  free energy    TOTEN  =       -66.30575175 eV

  energy without entropy =      -66.30565884  energy(sigma->0) =      -66.30570530


--------------------------------------------------------------------------------------------------------




--------------------------------------- Iteration      1(  10)  ---------------------------------------


    POTLOK:  cpu time    0.1115: real time    0.1122
    SETDIJ:  cpu time    0.0024: real time    0.0024
     EDDAV:  cpu time    5.2684: real time    5.2729
       DOS:  cpu time    0.0006: real time    0.0006
    CHARGE:  cpu time    0.3877: real time    0.3883
    MIXING:  cpu time    0.0034: real time    0.0034
    --------------------------------------------
      LOOP:  cpu time    5.7739: real time    5.7798

 eigenvalue-minimisations  :  2304
 total energy-change (2. order) : 0.8489549E-02  (-0.9492517E-03)
 number of electron      30.0000011 magnetization 
 augmentation part        0.4703024 magnetization 

 Broyden mixing:
  rms(total) = 0.78425E-02    rms(broyden)= 0.78365E-02
  rms(prec ) = 0.19743E-01
  weight for this iteration     100.00

 eigenvalues of (default mixing * dielectric matrix)
  average eigenvalue GAMMA=   2.0698
  3.5090  1.0221  2.3169  1.9687  1.5325

 Free energy of the ion-electron system (eV)
  ---------------------------------------------------
  alpha Z        PSCENC =        14.64016667
  Ewald energy   TEWEN  =      2593.16580357
  -Hartree energ DENC   =     -3478.39432292
  -exchange      EXHF   =         0.00000000
  -V(xc)+E(xc)   XCENC  =        95.59603362
  PAW double counting   =      2869.80280316    -2872.32974480
  entropy T*S    EENTRO =        -0.00014733
  eigenvalues    EBANDS =      -313.98175369
  atomic energy  EATOM  =      1025.20389953
  Solvation  Ediel_sol  =         0.00000000
  ---------------------------------------------------
  free energy    TOTEN  =       -66.29726220 eV

  energy without entropy =      -66.29711487  energy(sigma->0) =      -66.29718853


--------------------------------------------------------------------------------------------------------




--------------------------------------- Iteration      1(  11)  ---------------------------------------


    POTLOK:  cpu time    0.1116: real time    0.1124
    SETDIJ:  cpu time    0.0024: real time    0.0024
     EDDAV:  cpu time    5.2682: real time    5.2735
       DOS:  cpu time    0.0007: real time    0.0007
    CHARGE:  cpu time    0.3966: real time    0.3966
    MIXING:  cpu time    0.0033: real time    0.0033
    --------------------------------------------
      LOOP:  cpu time    5.7828: real time    5.7889

 eigenvalue-minimisations  :  2304
 total energy-change (2. order) : 0.1728331E-02  (-0.3145900E-03)
 number of electron      30.0000011 magnetization 
 augmentation part        0.4697640 magnetization 

 Broyden mixing:
  rms(total) = 0.59924E-02    rms(broyden)= 0.59894E-02
  rms(prec ) = 0.12050E-01
  weight for this iteration     100.00

 eigenvalues of (default mixing * dielectric matrix)
  average eigenvalue GAMMA=   2.2301
  4.6382  2.4045  2.4045  1.8505  1.1591  0.9239

 Free energy of the ion-electron system (eV)
  ---------------------------------------------------
  alpha Z        PSCENC =        14.64016667
  Ewald energy   TEWEN  =      2593.16580357
  -Hartree energ DENC   =     -3483.44872207
  -exchange      EXHF   =         0.00000000
  -V(xc)+E(xc)   XCENC  =        95.65363475
  PAW double counting   =      2879.67812111    -2882.20108810
  entropy T*S    EENTRO =        -0.00018082
  eigenvalues    EBANDS =      -308.98716851
  atomic energy  EATOM  =      1025.20389953
  Solvation  Ediel_sol  =         0.00000000
  ---------------------------------------------------
  free energy    TOTEN  =       -66.29553387 eV

  energy without entropy =      -66.29535305  energy(sigma->0) =      -66.29544346


--------------------------------------------------------------------------------------------------------




--------------------------------------- Iteration      1(  12)  ---------------------------------------


    POTLOK:  cpu time    0.1080: real time    0.1081
    SETDIJ:  cpu time    0.0023: real time    0.0023
     EDDAV:  cpu time    4.9142: real time    4.9194
       DOS:  cpu time    0.0007: real time    0.0007
    CHARGE:  cpu time    0.3961: real time    0.3969
    MIXING:  cpu time    0.0037: real time    0.0037
    --------------------------------------------
      LOOP:  cpu time    5.4249: real time    5.4311

 eigenvalue-minimisations  :  2088
 total energy-change (2. order) :-0.1929606E-03  (-0.6529976E-04)
 number of electron      30.0000011 magnetization 
 augmentation part        0.4696142 magnetization 

 Broyden mixing:
  rms(total) = 0.31476E-02    rms(broyden)= 0.31469E-02
  rms(prec ) = 0.65884E-02
  weight for this iteration     100.00

 eigenvalues of (default mixing * dielectric matrix)
  average eigenvalue GAMMA=   2.2714
  5.5000  2.8196  2.2295  2.0821  1.3534  1.0269  0.8886

 Free energy of the ion-electron system (eV)
  ---------------------------------------------------
  alpha Z        PSCENC =        14.64016667
  Ewald energy   TEWEN  =      2593.16580357
  -Hartree energ DENC   =     -3485.79142532
  -exchange      EXHF   =         0.00000000
  -V(xc)+E(xc)   XCENC  =        95.65568232
  PAW double counting   =      2868.36447107    -2870.89184302
  entropy T*S    EENTRO =        -0.00018749
  eigenvalues    EBANDS =      -306.64229415
  atomic energy  EATOM  =      1025.20389953
  Solvation  Ediel_sol  =         0.00000000
  ---------------------------------------------------
  free energy    TOTEN  =       -66.29572683 eV

  energy without entropy =      -66.29553934  energy(sigma->0) =      -66.29563308


--------------------------------------------------------------------------------------------------------




--------------------------------------- Iteration      1(  13)  ---------------------------------------


    POTLOK:  cpu time    0.1069: real time    0.1071
    SETDIJ:  cpu time    0.0023: real time    0.0023
     EDDAV:  cpu time    5.9262: real time    5.9376
       DOS:  cpu time    0.0007: real time    0.0007
    CHARGE:  cpu time    0.3909: real time    0.3910
    MIXING:  cpu time    0.0037: real time    0.0037
    --------------------------------------------
      LOOP:  cpu time    6.4307: real time    6.4423

 eigenvalue-minimisations  :  2688
 total energy-change (2. order) :-0.2061585E-02  (-0.2700896E-04)
 number of electron      30.0000011 magnetization 
 augmentation part        0.4696474 magnetization 

 Broyden mixing:
  rms(total) = 0.22196E-02    rms(broyden)= 0.22195E-02
  rms(prec ) = 0.44501E-02
  weight for this iteration     100.00

 eigenvalues of (default mixing * dielectric matrix)
  average eigenvalue GAMMA=   2.4370
  6.1233  3.6187  2.5559  2.1093  1.7504  1.3897  0.9415  1.0074

 Free energy of the ion-electron system (eV)
  ---------------------------------------------------
  alpha Z        PSCENC =        14.64016667
  Ewald energy   TEWEN  =      2593.16580357
  -Hartree energ DENC   =     -3486.12955576
  -exchange      EXHF   =         0.00000000
  -V(xc)+E(xc)   XCENC  =        95.64356475
  PAW double counting   =      2869.46026449    -2871.98573157
  entropy T*S    EENTRO =        -0.00018024
  eigenvalues    EBANDS =      -306.29601985
  atomic energy  EATOM  =      1025.20389953
  Solvation  Ediel_sol  =         0.00000000
  ---------------------------------------------------
  free energy    TOTEN  =       -66.29778841 eV

  energy without entropy =      -66.29760817  energy(sigma->0) =      -66.29769829


--------------------------------------------------------------------------------------------------------




--------------------------------------- Iteration      1(  14)  ---------------------------------------


    POTLOK:  cpu time    0.1051: real time    0.1053
    SETDIJ:  cpu time    0.0024: real time    0.0024
     EDDAV:  cpu time    5.1595: real time    5.1654
       DOS:  cpu time    0.0007: real time    0.0007
    CHARGE:  cpu time    0.3911: real time    0.3912
    MIXING:  cpu time    0.0038: real time    0.0038
    --------------------------------------------
      LOOP:  cpu time    5.6626: real time    5.6688

 eigenvalue-minimisations  :  2244
 total energy-change (2. order) :-0.2419489E-02  (-0.4505326E-04)
 number of electron      30.0000011 magnetization 
 augmentation part        0.4696610 magnetization 

 Broyden mixing:
  rms(total) = 0.17794E-02    rms(broyden)= 0.17794E-02
  rms(prec ) = 0.23206E-02
  weight for this iteration     100.00

 eigenvalues of (default mixing * dielectric matrix)
  average eigenvalue GAMMA=   2.5710
  7.0537  4.5147  2.5519  2.5519  2.0499  0.9770  1.0395  1.2003  1.2003

 Free energy of the ion-electron system (eV)
  ---------------------------------------------------
  alpha Z        PSCENC =        14.64016667
  Ewald energy   TEWEN  =      2593.16580357
  -Hartree energ DENC   =     -3486.76591200
  -exchange      EXHF   =         0.00000000
  -V(xc)+E(xc)   XCENC  =        95.63996908
  PAW double counting   =      2875.97570199    -2878.49979876
  entropy T*S    EENTRO =        -0.00017760
  eigenvalues    EBANDS =      -305.65986037
  atomic energy  EATOM  =      1025.20389953
  Solvation  Ediel_sol  =         0.00000000
  ---------------------------------------------------
  free energy    TOTEN  =       -66.30020790 eV

  energy without entropy =      -66.30003030  energy(sigma->0) =      -66.30011910


--------------------------------------------------------------------------------------------------------




--------------------------------------- Iteration      1(  15)  ---------------------------------------


    POTLOK:  cpu time    0.1049: real time    0.1050
    SETDIJ:  cpu time    0.0023: real time    0.0023
     EDDAV:  cpu time    5.5865: real time    5.5915
       DOS:  cpu time    0.0007: real time    0.0007
    CHARGE:  cpu time    0.3840: real time    0.3840
    MIXING:  cpu time    0.0038: real time    0.0038
    --------------------------------------------
      LOOP:  cpu time    6.0822: real time    6.0874

 eigenvalue-minimisations  :  2496
 total energy-change (2. order) :-0.6269969E-03  (-0.6604562E-05)
 number of electron      30.0000011 magnetization 
 augmentation part        0.4696006 magnetization 

 Broyden mixing:
  rms(total) = 0.86831E-03    rms(broyden)= 0.86820E-03
  rms(prec ) = 0.10940E-02
  weight for this iteration     100.00

 eigenvalues of (default mixing * dielectric matrix)
  average eigenvalue GAMMA=   2.7945
  8.5598  4.9873  3.2714  2.3812  2.3656  2.1148  1.2183  1.0205  1.0133  1.0133

 Free energy of the ion-electron system (eV)
  ---------------------------------------------------
  alpha Z        PSCENC =        14.64016667
  Ewald energy   TEWEN  =      2593.16580357
  -Hartree energ DENC   =     -3487.06634169
  -exchange      EXHF   =         0.00000000
  -V(xc)+E(xc)   XCENC  =        95.64305701
  PAW double counting   =      2871.78406781    -2874.30937583
  entropy T*S    EENTRO =        -0.00018029
  eigenvalues    EBANDS =      -305.36193167
  atomic energy  EATOM  =      1025.20389953
  Solvation  Ediel_sol  =         0.00000000
  ---------------------------------------------------
  free energy    TOTEN  =       -66.30083490 eV

  energy without entropy =      -66.30065461  energy(sigma->0) =      -66.30074475


--------------------------------------------------------------------------------------------------------




--------------------------------------- Iteration      1(  16)  ---------------------------------------


    POTLOK:  cpu time    0.1058: real time    0.1065
    SETDIJ:  cpu time    0.0023: real time    0.0023
     EDDAV:  cpu time    5.1044: real time    5.1092
       DOS:  cpu time    0.0007: real time    0.0007
    CHARGE:  cpu time    0.3934: real time    0.3941
    MIXING:  cpu time    0.0037: real time    0.0037
    --------------------------------------------
      LOOP:  cpu time    5.6102: real time    5.6165

 eigenvalue-minimisations  :  2208
 total energy-change (2. order) :-0.3089737E-03  (-0.2450926E-05)
 number of electron      30.0000011 magnetization 
 augmentation part        0.4696077 magnetization 

 Broyden mixing:
  rms(total) = 0.22423E-03    rms(broyden)= 0.22415E-03
  rms(prec ) = 0.27326E-03
  weight for this iteration     100.00

 eigenvalues of (default mixing * dielectric matrix)
  average eigenvalue GAMMA=   2.7908
  9.0487  5.6919  3.3001  2.6022  2.4449  2.0382  1.3452  1.1826  0.9955  0.9955
  1.0539

 Free energy of the ion-electron system (eV)
  ---------------------------------------------------
  alpha Z        PSCENC =        14.64016667
  Ewald energy   TEWEN  =      2593.16580357
  -Hartree energ DENC   =     -3487.12505679
  -exchange      EXHF   =         0.00000000
  -V(xc)+E(xc)   XCENC  =        95.64270014
  PAW double counting   =      2872.43707496    -2874.96169337
  entropy T*S    EENTRO =        -0.00017988
  eigenvalues    EBANDS =      -305.30385870
  atomic energy  EATOM  =      1025.20389953
  Solvation  Ediel_sol  =         0.00000000
  ---------------------------------------------------
  free energy    TOTEN  =       -66.30114387 eV

  energy without entropy =      -66.30096399  energy(sigma->0) =      -66.30105393


--------------------------------------------------------------------------------------------------------




--------------------------------------- Iteration      1(  17)  ---------------------------------------


    POTLOK:  cpu time    0.1057: real time    0.1058
    SETDIJ:  cpu time    0.0023: real time    0.0023
     EDDAV:  cpu time    5.5150: real time    5.5191
       DOS:  cpu time    0.0007: real time    0.0007
    CHARGE:  cpu time    0.3905: real time    0.3912
    MIXING:  cpu time    0.0039: real time    0.0039
    --------------------------------------------
      LOOP:  cpu time    6.0181: real time    6.0230

 eigenvalue-minimisations  :  2448
 total energy-change (2. order) :-0.3187495E-04  (-0.1443357E-06)
 number of electron      30.0000011 magnetization 
 augmentation part        0.4696013 magnetization 

 Broyden mixing:
  rms(total) = 0.10173E-03    rms(broyden)= 0.10172E-03
  rms(prec ) = 0.12072E-03
  weight for this iteration     100.00

 eigenvalues of (default mixing * dielectric matrix)
  average eigenvalue GAMMA=   2.8275
  9.5667  5.8603  3.5433  2.8991  2.3740  2.3740  2.0754  1.2504  0.9816  0.9816
  1.0120  1.0120

 Free energy of the ion-electron system (eV)
  ---------------------------------------------------
  alpha Z        PSCENC =        14.64016667
  Ewald energy   TEWEN  =      2593.16580357
  -Hartree energ DENC   =     -3487.10398865
  -exchange      EXHF   =         0.00000000
  -V(xc)+E(xc)   XCENC  =        95.64246065
  PAW double counting   =      2872.27394374    -2874.79886530
  entropy T*S    EENTRO =        -0.00018012
  eigenvalues    EBANDS =      -305.32441585
  atomic energy  EATOM  =      1025.20389953
  Solvation  Ediel_sol  =         0.00000000
  ---------------------------------------------------
  free energy    TOTEN  =       -66.30117575 eV

  energy without entropy =      -66.30099563  energy(sigma->0) =      -66.30108569


--------------------------------------------------------------------------------------------------------




--------------------------------------- Iteration      1(  18)  ---------------------------------------


    POTLOK:  cpu time    0.1065: real time    0.1065
    SETDIJ:  cpu time    0.0023: real time    0.0023
     EDDAV:  cpu time    4.3772: real time    4.3811
       DOS:  cpu time    0.0007: real time    0.0007
    CHARGE:  cpu time    0.3873: real time    0.3880
    MIXING:  cpu time    0.0040: real time    0.0040
    --------------------------------------------
      LOOP:  cpu time    4.8779: real time    4.8826

 eigenvalue-minimisations  :  1740
 total energy-change (2. order) :-0.1388286E-04  (-0.3636034E-07)
 number of electron      30.0000011 magnetization 
 augmentation part        0.4696017 magnetization 

 Broyden mixing:
  rms(total) = 0.19117E-04    rms(broyden)= 0.19115E-04
  rms(prec ) = 0.26602E-04
  weight for this iteration     100.00

 eigenvalues of (default mixing * dielectric matrix)
  average eigenvalue GAMMA=   2.7106
  9.5394  5.9173  3.7530  2.8226  2.4814  2.3744  2.0625  1.2711  1.0503  1.0503
  1.0035  1.0035  0.9084

 Free energy of the ion-electron system (eV)
  ---------------------------------------------------
  alpha Z        PSCENC =        14.64016667
  Ewald energy   TEWEN  =      2593.16580357
  -Hartree energ DENC   =     -3487.10165919
  -exchange      EXHF   =         0.00000000
  -V(xc)+E(xc)   XCENC  =        95.64223572
  PAW double counting   =      2872.29111750    -2874.81601912
  entropy T*S    EENTRO =        -0.00017989
  eigenvalues    EBANDS =      -305.32655442
  atomic energy  EATOM  =      1025.20389953
  Solvation  Ediel_sol  =         0.00000000
  ---------------------------------------------------
  free energy    TOTEN  =       -66.30118963 eV

  energy without entropy =      -66.30100974  energy(sigma->0) =      -66.30109968


--------------------------------------------------------------------------------------------------------




--------------------------------------- Iteration      1(  19)  ---------------------------------------


    POTLOK:  cpu time    0.1072: real time    0.1073
    SETDIJ:  cpu time    0.0024: real time    0.0024
     EDDAV:  cpu time    4.7659: real time    4.7711
       DOS:  cpu time    0.0007: real time    0.0007
    CHARGE:  cpu time    0.3843: real time    0.3851
    MIXING:  cpu time    0.0042: real time    0.0042
    --------------------------------------------
      LOOP:  cpu time    5.2647: real time    5.2708

 eigenvalue-minimisations  :  1968
 total energy-change (2. order) :-0.1516519E-05  (-0.4586347E-08)
 number of electron      30.0000011 magnetization 
 augmentation part        0.4696017 magnetization 

 Broyden mixing:
  rms(total) = 0.10115E-04    rms(broyden)= 0.10114E-04
  rms(prec ) = 0.11774E-04
  weight for this iteration     100.00

 eigenvalues of (default mixing * dielectric matrix)
  average eigenvalue GAMMA=   2.7299
  9.5470  5.9378  3.8950  2.8571  2.8571  2.3835  2.3835  2.0512  1.2525  0.9876
  1.0215  1.0215  1.0118  1.0118

 Free energy of the ion-electron system (eV)
  ---------------------------------------------------
  alpha Z        PSCENC =        14.64016667
  Ewald energy   TEWEN  =      2593.16580357
  -Hartree energ DENC   =     -3487.10771853
  -exchange      EXHF   =         0.00000000
  -V(xc)+E(xc)   XCENC  =        95.64231506
  PAW double counting   =      2872.31822279    -2874.84310293
  entropy T*S    EENTRO =        -0.00017993
  eigenvalues    EBANDS =      -305.32059738
  atomic energy  EATOM  =      1025.20389953
  Solvation  Ediel_sol  =         0.00000000
  ---------------------------------------------------
  free energy    TOTEN  =       -66.30119115 eV

  energy without entropy =      -66.30101122  energy(sigma->0) =      -66.30110118


--------------------------------------------------------------------------------------------------------




--------------------------------------- Iteration      1(  20)  ---------------------------------------


    POTLOK:  cpu time    0.1107: real time    0.1109
    SETDIJ:  cpu time    0.0023: real time    0.0023
     EDDAV:  cpu time    4.1123: real time    4.1161
       DOS:  cpu time    0.0007: real time    0.0007
    --------------------------------------------
      LOOP:  cpu time    4.2259: real time    4.2300

 eigenvalue-minimisations  :  1560
 total energy-change (2. order) :-0.8270961E-06  (-0.2161594E-08)
 number of electron      30.0000011 magnetization 
 augmentation part        0.4696017 magnetization 

 Free energy of the ion-electron system (eV)
  ---------------------------------------------------
  alpha Z        PSCENC =        14.64016667
  Ewald energy   TEWEN  =      2593.16580357
  -Hartree energ DENC   =     -3487.10835034
  -exchange      EXHF   =         0.00000000
  -V(xc)+E(xc)   XCENC  =        95.64233567
  PAW double counting   =      2872.31466180    -2874.83954669
  entropy T*S    EENTRO =        -0.00017995
  eigenvalues    EBANDS =      -305.31998224
  atomic energy  EATOM  =      1025.20389953
  Solvation  Ediel_sol  =         0.00000000
  ---------------------------------------------------
  free energy    TOTEN  =       -66.30119197 eV

  energy without entropy =      -66.30101202  energy(sigma->0) =      -66.30110200


--------------------------------------------------------------------------------------------------------




 average (electrostatic) potential at core
  the test charge radii are     0.7672  0.6991
  (the norm of the test charge is              1.0000)
       1 -34.2442       2 -34.2442       3 -57.3025       4 -57.3025       5 -57.3027
       6 -57.3027       7 -57.3025       8 -57.3025
 
 
 
 E-fermi :  -3.7574     XC(G=0):  -2.8026     alpha+bet : -2.3762


 k-point     1 :       0.0000    0.0000    0.0000
  band No.  band energies     occupation 
      1     -19.5195      2.00000
      2     -15.5902      2.00000
      3     -15.5880      2.00000
      4     -13.8497      2.00000
      5     -13.8491      2.00000
      6     -12.3340      2.00000
      7     -12.1301      2.00000
      8      -8.6261      2.00000
      9      -7.8989      2.00000
     10      -6.5918      2.00000
     11      -6.5897      2.00000
     12      -4.2978      2.00000
     13      -4.2961      2.00000
     14      -3.9113      1.97048
     15      -3.9106      1.96970
     16      -2.6230      0.00000
     17      -0.6593      0.00000
     18      -0.6591      0.00000
     19       0.8382      0.00000
     20       1.0371      0.00000
     21       1.8176      0.00000
     22       2.2542      0.00000
     23       4.2004      0.00000
     24       4.2756      0.00000

 k-point     2 :       0.0833    0.0000    0.0000
  band No.  band energies     occupation 
      1     -19.4863      2.00000
      2     -15.7607      2.00000
      3     -15.6583      2.00000
      4     -13.9038      2.00000
      5     -13.7194      2.00000
      6     -12.1946      2.00000
      7     -11.9249      2.00000
      8      -8.5822      2.00000
      9      -7.9717      2.00000
     10      -6.7008      2.00000
     11      -6.6084      2.00000
     12      -4.4301      2.00000
     13      -4.3231      2.00000
     14      -4.0640      1.99999
     15      -3.9903      1.99901
     16      -2.8009      0.00000
     17      -0.5960      0.00000
     18      -0.3643      0.00000
     19       0.8898      0.00000
     20       1.1469      0.00000
     21       1.8791      0.00000
     22       2.3062      0.00000
     23       4.2519      0.00000
     24       4.3568      0.00000

 k-point     3 :       0.1667   -0.0000    0.0000
  band No.  band energies     occupation 
      1     -19.3877      2.00000
      2     -16.1692      2.00000
      3     -15.8141      2.00000
      4     -14.0410      2.00000
      5     -13.3829      2.00000
      6     -11.8319      2.00000
      7     -11.3895      2.00000
      8      -8.4507      2.00000
      9      -8.2129      2.00000
     10      -7.0125      2.00000
     11      -6.6103      2.00000
     12      -4.8105      2.00000
     13      -4.4997      2.00000
     14      -4.3902      2.00000
     15      -4.2111      2.00000
     16      -3.0947      0.00000
     17      -0.4236      0.00000
     18       0.2339      0.00000
     19       1.0441      0.00000
     20       1.4793      0.00000
     21       2.0766      0.00000
     22       2.4620      0.00000
     23       4.4061      0.00000
     24       4.5696      0.00000

 k-point     4 :       0.2500   -0.0000    0.0000
  band No.  band energies     occupation 
      1     -19.2279      2.00000
      2     -16.6578      2.00000
      3     -15.9817      2.00000
      4     -14.1980      2.00000
      5     -12.9252      2.00000
      6     -11.3513      2.00000
      7     -10.6459      2.00000
      8      -8.6287      2.00000
      9      -8.2334      2.00000
     10      -7.4745      2.00000
     11      -6.5265      2.00000
     12      -5.3499      2.00000
     13      -5.1586      2.00000
     14      -4.5323      2.00000
     15      -4.4754      2.00000
     16      -3.3194      0.00000
     17      -0.1863      0.00000
     18       0.8054      0.00000
     19       1.3006      0.00000
     20       1.9796      0.00000
     21       2.4867      0.00000
     22       2.7212      0.00000
     23       4.6624      0.00000
     24       4.8511      0.00000

 k-point     5 :       0.3333    0.0000    0.0000
  band No.  band energies     occupation 
      1     -19.0179      2.00000
      2     -17.1345      2.00000
      3     -16.1188      2.00000
      4     -14.3291      2.00000
      5     -12.4141      2.00000
      6     -10.8118      2.00000
      7      -9.7916      2.00000
      8      -9.1501      2.00000
      9      -8.0177      2.00000
     10      -7.9339      2.00000
     11      -6.3463      2.00000
     12      -5.9721      2.00000
     13      -5.9389      2.00000
     14      -4.9047      2.00000
     15      -4.5543      2.00000
     16      -3.4684      0.00004
     17       0.0557      0.00000
     18       1.2410      0.00000
     19       1.6586      0.00000
     20       2.4668      0.00000
     21       3.0837      0.00000
     22       3.2114      0.00000
     23       4.0949      0.00000
     24       4.9536      0.00000

 k-point     6 :       0.4167   -0.0000    0.0000
  band No.  band energies     occupation 
      1     -18.7930      2.00000
      2     -17.5290      2.00000
      3     -16.2063      2.00000
      4     -14.4133      2.00000
      5     -11.9392      2.00000
      6     -10.2698      2.00000
      7      -9.6499      2.00000
      8      -8.9852      2.00000
      9      -8.4596      2.00000
     10      -7.5639      2.00000
     11      -6.8763      2.00000
     12      -6.5011      2.00000
     13      -6.0987      2.00000
     14      -5.2753      2.00000
     15      -4.6086      2.00000
     16      -3.5549      0.00418
     17       0.2380      0.00000
     18       1.5272      0.00000
     19       2.1175      0.00000
     20       2.9585      0.00000
     21       3.3366      0.00000
     22       3.5497      0.00000
     23       3.9251      0.00000
     24       4.4376      0.00000

 k-point     7 :       0.5000   -0.0000    0.0000
  band No.  band energies     occupation 
      1     -18.6725      2.00000
      2     -17.7074      2.00000
      3     -16.2362      2.00000
      4     -14.4421      2.00000
      5     -11.7115      2.00000
      6      -9.9514      2.00000
      7      -9.8890      2.00000
      8      -9.0196      2.00000
      9      -7.8485      2.00000
     10      -7.7743      2.00000
     11      -7.2556      2.00000
     12      -6.8761      2.00000
     13      -5.9132      2.00000
     14      -5.5029      2.00000
     15      -4.6279      2.00000
     16      -3.5836      0.01392
     17       0.3060      0.00000
     18       1.6301      0.00000
     19       2.6584      0.00000
     20       2.6963      0.00000
     21       3.4834      0.00000
     22       3.5343      0.00000
     23       4.1090      0.00000
     24       4.1260      0.00000

 k-point     8 :       0.0833    0.0833    0.0000
  band No.  band energies     occupation 
      1     -19.4204      2.00000
      2     -16.0202      2.00000
      3     -15.8056      2.00000
      4     -13.9296      2.00000
      5     -13.5601      2.00000
      6     -11.9142      2.00000
      7     -11.5756      2.00000
      8      -8.4944      2.00000
      9      -8.1357      2.00000
     10      -6.8674      2.00000
     11      -6.6557      2.00000
     12      -4.6515      2.00000
     13      -4.4210      2.00000
     14      -4.3502      2.00000
     15      -4.1488      2.00000
     16      -2.9959      0.00000
     17      -0.5263      0.00000
     18       0.1126      0.00000
     19       0.9928      0.00000
     20       1.3625      0.00000
     21       2.0074      0.00000
     22       2.4101      0.00000
     23       4.3548      0.00000
     24       4.5201      0.00000

 k-point     9 :       0.1667    0.0833    0.0000
  band No.  band energies     occupation 
      1     -19.2909      2.00000
      2     -16.4308      2.00000
      3     -16.0158      2.00000
      4     -13.9921      2.00000
      5     -13.2529      2.00000
      6     -11.4378      2.00000
      7     -10.9746      2.00000
      8      -8.4974      2.00000
      9      -8.3200      2.00000
     10      -7.1658      2.00000
     11      -6.6706      2.00000
     12      -5.0696      2.00000
     13      -4.8786      2.00000
     14      -4.5976      2.00000
     15      -4.4390      2.00000
     16      -3.1375      0.00000
     17      -0.4150      0.00000
     18       0.7616      0.00000
     19       1.1983      0.00000
     20       1.7662      0.00000
     21       2.2957      0.00000
     22       2.6177      0.00000
     23       4.5602      0.00000
     24       4.8068      0.00000

 k-point    10 :       0.2500    0.0833    0.0000
  band No.  band energies     occupation 
      1     -19.1049      2.00000
      2     -16.8970      2.00000
      3     -16.1943      2.00000
      4     -14.0995      2.00000
      5     -12.8024      2.00000
      6     -10.8990      2.00000
      7     -10.1948      2.00000
      8      -9.0123      2.00000
      9      -8.0613      2.00000
     10      -7.6057      2.00000
[...]
     24       4.1718      0.00000

 k-point    31 :       0.5000    0.2500    0.0000
  band No.  band energies     occupation 
      1     -18.7295      2.00000
      2     -17.3006      2.00000
      3     -16.8820      2.00000
      4     -13.4426      2.00000
      5     -12.7471      2.00000
      6     -10.2701      2.00000
      7      -9.3762      2.00000
      8      -9.0941      2.00000
      9      -7.4786      2.00000
     10      -7.4628      2.00000
     11      -6.9938      2.00000
     12      -6.7159      2.00000
     13      -6.0998      2.00000
     14      -5.7558      2.00000
     15      -5.7540      2.00000
     16      -2.4631      0.00000
     17      -0.8183      0.00000
     18       2.2213      0.00000
     19       2.7591      0.00000
     20       2.9985      0.00000
     21       3.6538      0.00000
     22       3.8207      0.00000
     23       4.0384      0.00000
     24       4.0622      0.00000

 k-point    32 :      -0.4167    0.2500    0.0000
  band No.  band energies     occupation 
      1     -18.9311      2.00000
      2     -17.1089      2.00000
      3     -16.5552      2.00000
      4     -13.7701      2.00000
      5     -12.8083      2.00000
      6     -10.2174      2.00000
      7      -9.7009      2.00000
      8      -9.5500      2.00000
      9      -7.8072      2.00000
     10      -7.5310      2.00000
     11      -6.7603      2.00000
     12      -6.1300      2.00000
     13      -5.8574      2.00000
     14      -5.2761      2.00000
     15      -5.2433      2.00000
     16      -2.8505      0.00000
     17      -0.5259      0.00000
     18       1.8126      0.00000
     19       2.0750      0.00000
     20       2.5879      0.00000
     21       3.2395      0.00000
     22       3.3001      0.00000
     23       4.2490      0.00000
     24       4.8571      0.00000

 k-point    33 :      -0.3333    0.2500    0.0000
  band No.  band energies     occupation 
      1     -19.1050      2.00000
      2     -16.8980      2.00000
      3     -16.1929      2.00000
      4     -14.0981      2.00000
      5     -12.8031      2.00000
      6     -10.8998      2.00000
      7     -10.1962      2.00000
      8      -9.0133      2.00000
      9      -8.0615      2.00000
     10      -7.6058      2.00000
     11      -6.5559      2.00000
     12      -5.6246      2.00000
     13      -5.5964      2.00000
     14      -4.8049      2.00000
     15      -4.7516      2.00000
     16      -3.2058      0.00000
     17      -0.2596      0.00000
     18       1.3192      0.00000
     19       1.5054      0.00000
     20       2.2574      0.00000
     21       2.8453      0.00000
     22       2.9284      0.00000
     23       4.5479      0.00000
     24       4.8644      0.00000

 k-point    34 :      -0.2500    0.2500    0.0000
  band No.  band energies     occupation 
      1     -19.2279      2.00000
      2     -16.6589      2.00000
      3     -15.9802      2.00000
      4     -14.1972      2.00000
      5     -12.9258      2.00000
      6     -11.3516      2.00000
      7     -10.6470      2.00000
      8      -8.6292      2.00000
      9      -8.2335      2.00000
     10      -7.4755      2.00000
     11      -6.5241      2.00000
     12      -5.3511      2.00000
     13      -5.1597      2.00000
     14      -4.5312      2.00000
     15      -4.4740      2.00000
     16      -3.3183      0.00000
     17      -0.1868      0.00000
     18       0.8049      0.00000
     19       1.3005      0.00000
     20       1.9793      0.00000
     21       2.4862      0.00000
     22       2.7211      0.00000
     23       4.6622      0.00000
     24       4.8551      0.00000

 k-point    35 :       0.3333    0.3333    0.0000
  band No.  band energies     occupation 
      1     -18.5022      2.00000
      2     -17.3307      2.00000
      3     -17.3297      2.00000
      4     -12.8613      2.00000
      5     -12.8586      2.00000
      6     -10.9110      2.00000
      7      -8.1942      2.00000
      8      -8.1932      2.00000
      9      -8.0602      2.00000
     10      -7.5374      2.00000
     11      -6.9159      2.00000
     12      -6.6836      2.00000
     13      -6.6830      2.00000
     14      -6.3647      2.00000
     15      -6.3640      2.00000
     16      -1.6023      0.00000
     17      -1.6001      0.00000
     18       3.2773      0.00000
     19       3.2778      0.00000
     20       3.3180      0.00000
     21       3.4335      0.00000
     22       4.0301      0.00000
     23       4.0307      0.00000
     24       4.7361      0.00000

 k-point    36 :       0.4167    0.3333    0.0000
  band No.  band energies     occupation 
      1     -18.5662      2.00000
      2     -17.4655      2.00000
      3     -17.0494      2.00000
      4     -13.3033      2.00000
      5     -12.5592      2.00000
      6     -10.7030      2.00000
      7      -8.8631      2.00000
      8      -8.3773      2.00000
      9      -7.7060      2.00000
     10      -7.4699      2.00000
     11      -7.1147      2.00000
     12      -6.7618      2.00000
     13      -6.4792      2.00000
     14      -6.2117      2.00000
     15      -5.9454      2.00000
     16      -2.1765      0.00000
     17      -1.0459      0.00000
     18       2.7306      0.00000
     19       3.1153      0.00000
     20       3.3408      0.00000
     21       3.5285      0.00000
     22       3.9509      0.00000
     23       4.0884      0.00000
     24       4.1717      0.00000

 k-point    37 :       0.5000    0.3333    0.0000
  band No.  band energies     occupation 
      1     -18.7166      2.00000
      2     -17.4531      2.00000
      3     -16.6815      2.00000
      4     -13.7910      2.00000
      5     -12.3862      2.00000
      6     -10.2133      2.00000
      7      -9.6039      2.00000
      8      -8.8279      2.00000
      9      -7.9345      2.00000
     10      -7.4418      2.00000
     11      -6.9540      2.00000
     12      -6.5226      2.00000
     13      -6.3876      2.00000
     14      -5.6607      2.00000
     15      -5.4057      2.00000
     16      -2.7448      0.00000
     17      -0.5316      0.00000
     18       2.2716      0.00000
     19       2.4370      0.00000
     20       3.0968      0.00000
     21       3.4908      0.00000
     22       3.7056      0.00000
     23       3.9809      0.00000
     24       4.4940      0.00000

 k-point    38 :      -0.4167    0.3333    0.0000
  band No.  band energies     occupation 
      1     -18.8819      2.00000
      2     -17.3319      2.00000
      3     -16.3176      2.00000
      4     -14.1906      2.00000
      5     -12.3073      2.00000
      6     -10.3511      2.00000
      7      -9.5920      2.00000
      8      -9.3071      2.00000
      9      -8.1068      2.00000
     10      -7.7249      2.00000
     11      -6.4446      2.00000
     12      -6.3380      2.00000
     13      -6.2006      2.00000
     14      -5.1945      2.00000
     15      -4.8612      2.00000
     16      -3.2460      0.00000
     17      -0.1020      0.00000
     18       1.7120      0.00000
     19       1.9139      0.00000
     20       2.7405      0.00000
     21       3.3422      0.00000
     22       3.6310      0.00000
     23       3.7421      0.00000
     24       4.6739      0.00000

 k-point    39 :      -0.3333    0.3333    0.0000
  band No.  band energies     occupation 
      1     -19.0180      2.00000
      2     -17.1355      2.00000
      3     -16.1173      2.00000
      4     -14.3281      2.00000
      5     -12.4150      2.00000
      6     -10.8123      2.00000
      7      -9.7930      2.00000
      8      -9.1504      2.00000
      9      -8.0183      2.00000
     10      -7.9342      2.00000
     11      -6.3439      2.00000
     12      -5.9734      2.00000
     13      -5.9398      2.00000
     14      -4.9033      2.00000
     15      -4.5529      2.00000
     16      -3.4671      0.00004
     17       0.0549      0.00000
     18       1.2403      0.00000
     19       1.6584      0.00000
     20       2.4665      0.00000
     21       3.0834      0.00000
     22       3.2105      0.00000
     23       4.0940      0.00000
     24       4.9531      0.00000

 k-point    40 :       0.4167    0.4167    0.0000
  band No.  band energies     occupation 
      1     -18.6048      2.00000
      2     -17.6126      2.00000
      3     -16.7215      2.00000
      4     -13.8043      2.00000
      5     -12.1620      2.00000
      6     -10.4625      2.00000
      7      -9.3389      2.00000
      8      -8.3626      2.00000
      9      -7.8607      2.00000
     10      -7.7243      2.00000
     11      -7.1434      2.00000
     12      -6.7472      2.00000
     13      -6.3380      2.00000
     14      -5.9104      2.00000
     15      -5.4459      2.00000
     16      -2.7092      0.00000
     17      -0.5282      0.00000
     18       2.5624      0.00000
     19       2.8148      0.00000
     20       2.8481      0.00000
     21       3.6192      0.00000
     22       3.6818      0.00000
     23       4.2671      0.00000
     24       4.2806      0.00000

 k-point    41 :       0.5000    0.4167    0.0000
  band No.  band energies     occupation 
      1     -18.6883      2.00000
      2     -17.6365      2.00000
      3     -16.3813      2.00000
      4     -14.2413      2.00000
      5     -11.9162      2.00000
      6     -10.0458      2.00000
      7      -9.8476      2.00000
      8      -8.7455      2.00000
      9      -8.2152      2.00000
     10      -7.3499      2.00000
     11      -7.3409      2.00000
     12      -6.7141      2.00000
     13      -6.0898      2.00000
     14      -5.5368      2.00000
     15      -4.9179      2.00000
     16      -3.2668      0.00000
     17      -0.0023      0.00000
     18       1.9239      0.00000
     19       2.4228      0.00000
     20       3.0334      0.00000
     21       3.2612      0.00000
     22       3.8242      0.00000
     23       3.8594      0.00000
     24       4.4789      0.00000

 k-point    42 :      -0.4167    0.4167    0.0000
  band No.  band energies     occupation 
      1     -18.7931      2.00000
      2     -17.5299      2.00000
      3     -16.2047      2.00000
      4     -14.4123      2.00000
      5     -11.9405      2.00000
      6     -10.2708      2.00000
      7      -9.6497      2.00000
      8      -8.9865      2.00000
      9      -8.4600      2.00000
     10      -7.5642      2.00000
     11      -6.8777      2.00000
     12      -6.5019      2.00000
     13      -6.0964      2.00000
     14      -5.2736      2.00000
     15      -4.6072      2.00000
     16      -3.5536      0.00395
     17       0.2371      0.00000
     18       1.5264      0.00000
     19       2.1172      0.00000
     20       2.9580      0.00000
     21       3.3359      0.00000
     22       3.5494      0.00000
     23       3.9239      0.00000
     24       4.4373      0.00000

 k-point    43 :       0.5000    0.5000    0.0000
  band No.  band energies     occupation 
      1     -18.6726      2.00000
      2     -17.7083      2.00000
      3     -16.2347      2.00000
      4     -14.4411      2.00000
      5     -11.7132      2.00000
      6      -9.9531      2.00000
      7      -9.8885      2.00000
      8      -9.0194      2.00000
      9      -7.8503      2.00000
     10      -7.7752      2.00000
     11      -7.2560      2.00000
     12      -6.8768      2.00000
     13      -5.9110      2.00000
     14      -5.5010      2.00000
     15      -4.6264      2.00000
     16      -3.5823      0.01323
     17       0.3051      0.00000
     18       1.6292      0.00000
     19       2.6579      0.00000
     20       2.6958      0.00000
     21       3.4826      0.00000
     22       3.5338      0.00000
     23       4.1085      0.00000
     24       4.1255      0.00000


--------------------------------------------------------------------------------------------------------


 soft charge-density along one line, spin component           1
         0         1         2         3         4         5         6         7         8         9
 total charge-density along one line
 
 pseudopotential strength for first ion, spin component:           1
  6.729  10.266  -0.000   0.000   0.000  -0.000   0.000  -0.000
 10.266  15.658  -0.000   0.000   0.000  -0.000   0.000  -0.000
 -0.000  -0.000  -2.303   0.000  -0.000  -3.951   0.000  -0.000
  0.000   0.000   0.000  -2.305   0.000   0.000  -3.951   0.000
  0.000   0.000  -0.000   0.000  -2.303  -0.000   0.000  -3.951
 -0.000  -0.000  -3.951   0.000  -0.000  -6.580   0.000  -0.000
  0.000   0.000   0.000  -3.951   0.000   0.000  -6.574   0.000
 -0.000  -0.000  -0.000   0.000  -3.951  -0.000   0.000  -6.580
 total augmentation occupancy for first ion, spin component:           1
  4.254  -1.170   0.000  -0.000   0.001   0.000   0.000  -0.000
 -1.170   0.342  -0.000   0.000  -0.000   0.000   0.000   0.000
  0.000   0.000   4.856   0.000   0.000  -1.346   0.000   0.000
  0.000   0.000   0.000   1.184   0.000   0.000  -0.303   0.000
  0.001  -0.000   0.000   0.000   4.855   0.000   0.000  -1.345
  0.000   0.000  -1.346   0.000   0.000   0.385   0.000   0.000
  0.000   0.000   0.000  -0.303   0.000   0.000   0.078   0.000
 -0.000   0.000   0.000   0.000  -1.345   0.000   0.000   0.385


------------------------ aborting loop because EDIFF is reached ----------------------------------------


    CHARGE:  cpu time    0.3809: real time    0.3809
    FORLOC:  cpu time    0.0080: real time    0.0080
    FORNL :  cpu time    0.5354: real time    0.5361
    STRESS:  cpu time    3.3137: real time    3.3162
    FORCOR:  cpu time    0.1126: real time    0.1126
    FORHAR:  cpu time    0.0297: real time    0.0297
    MIXING:  cpu time    0.0045: real time    0.0045
    OFIELD:  cpu time    0.0000: real time    0.0000

  FORCE on cell =-STRESS in cart. coord.  units (eV):
  Direction    XX          YY          ZZ          XY          YZ          ZX
  --------------------------------------------------------------------------------------
  Alpha Z    14.64017    14.64017    14.64017
  Ewald    3499.83627  3499.92605 -4406.59780     0.00000    -0.00000    -0.00000
  Hartree  3440.02040  3440.03994 -3392.95208    -0.00000    -0.00000    -0.00000
  E(xc)    -107.13221  -107.13257  -110.94478     0.00000    -0.00000    -0.00000
  Local   -7257.53373 -7257.62598  7464.13606    -0.00000     0.00000     0.00000
  n-local   -20.48238   -20.49145    -9.26734     0.29349     0.00000     0.00000
  augment    -1.65379    -1.65376    -1.71366     0.00000     0.00000    -0.00000
  Kinetic   431.63852   431.69664   442.51063    -3.11941    -0.00000    -0.00000
  Fock        0.00000     0.00000     0.00000     0.00000     0.00000     0.00000
  -------------------------------------------------------------------------------------
  Total      -0.66675    -0.60096    -0.18880     0.00000     0.00000     0.00000
  in kB      -3.08315    -2.77893    -0.87303     0.00000     0.00000     0.00000
  external pressure =       -2.25 kB  Pullay stress =        0.00 kB


 VOLUME and BASIS-vectors are now :
 -----------------------------------------------------------------------------
  energy-cutoff  :      450.00
  volume of cell :      346.48
      direct lattice vectors                 reciprocal lattice vectors
     4.473000000  2.582000000  0.000000000     0.111781802  0.193648335  0.000000000
    -4.473000000  2.582000000  0.000000000    -0.111781802  0.193648335  0.000000000
     0.000000000  0.000000000 15.000000000     0.000000000  0.000000000  0.066666667

  length of vectors
     5.164731648  5.164731648 15.000000000     0.223595279  0.223595279  0.066666667


 FORCES acting on ions
    electron-ion (+dipol)            ewald-force                    non-local-force                 convergence-correction
 -----------------------------------------------------------------------------------------------
   0.298E-01 0.548E-04 0.601E-11   -.304E-01 -.129E-13 -.813E-19   -.266E-02 0.694E-17 0.000E+00   0.405E-05 -.103E-09 -.368E-13
   -.298E-01 0.548E-04 0.144E-11   0.304E-01 0.711E-14 -.516E-19   0.266E-02 0.694E-17 0.000E+00   -.405E-05 -.103E-09 -.369E-13
   0.102E+02 -.178E+02 -.833E-07   -.111E+02 0.193E+02 0.160E-17   0.306E+01 -.531E+01 0.000E+00   -.322E-04 0.676E-04 -.574E-13
   -.102E+02 -.178E+02 -.833E-07   0.111E+02 0.193E+02 0.184E-17   -.306E+01 -.531E+01 -.165E-23   0.322E-04 0.676E-04 -.553E-13
   -.205E+02 0.509E-03 0.267E-10   0.224E+02 -.142E-13 -.323E-18   -.613E+01 0.000E+00 0.000E+00   0.717E-04 0.334E-09 -.507E-13
   0.205E+02 0.509E-03 0.261E-10   -.224E+02 0.147E-13 -.386E-18   0.613E+01 0.000E+00 0.165E-23   -.717E-04 0.334E-09 -.565E-13
   0.102E+02 0.178E+02 0.834E-07   -.111E+02 -.193E+02 -.120E-17   0.306E+01 0.531E+01 0.000E+00   -.322E-04 -.676E-04 -.528E-13
   -.102E+02 0.178E+02 0.834E-07   0.111E+02 -.193E+02 -.140E-17   -.306E+01 0.531E+01 0.000E+00   0.322E-04 -.676E-04 -.500E-13
 -----------------------------------------------------------------------------------------------
   -.171E-12 0.347E-02 0.182E-09   -.142E-13 0.000E+00 -.578E-33   0.000E+00 -.888E-15 0.000E+00   -.361E-14 0.656E-09 -.396E-12
 
 
 POSITION                                       TOTAL-FORCE (eV/Angst)
 -----------------------------------------------------------------------------------
     -1.49100      2.58200      3.75000        -0.003322      0.000000     -0.000000
      1.49100      2.58200      3.75000         0.003322      0.000000     -0.000000
     -0.74550      1.29100      3.75000         2.157839     -3.734072      0.000000
      0.74550      1.29100      3.75000        -2.157839     -3.734072      0.000000
     -2.98200      2.58200      3.75000        -4.309175      0.000000      0.000000
      2.98200      2.58200      3.75000         4.309175      0.000000      0.000000
     -0.74550      3.87300      3.75000         2.157839      3.734072      0.000000
      0.74550      3.87300      3.75000        -2.157839      3.734072      0.000000
 -----------------------------------------------------------------------------------
    total drift:                               -0.000000      0.003468      0.000000


--------------------------------------------------------------------------------------------------------



  FREE ENERGIE OF THE ION-ELECTRON SYSTEM (eV)
  ---------------------------------------------------
  free  energy   TOTEN  =       -66.30119197 eV

  energy  without entropy=      -66.30101202  energy(sigma->0) =      -66.30110200
 


--------------------------------------------------------------------------------------------------------


    POTLOK:  cpu time    0.1130: real time    0.1137


--------------------------------------------------------------------------------------------------------


 writing wavefunctions
     LOOP+:  cpu time  124.5222: real time  125.8590
    4ORBIT:  cpu time    0.0000: real time    0.0000

 total amount of memory used by VASP MPI-rank0    97625. kBytes
=======================================================================

   base      :      30000. kBytes
   nonl-proj :      42510. kBytes
   fftplans  :       3727. kBytes
   grid      :      10879. kBytes
   one-center:         24. kBytes
   wavefun   :      10485. kBytes
 
  
  
 General timing and accounting informations for this job:
 ========================================================
  
                  Total CPU time used (sec):      128.915
                            User time (sec):      127.711
                          System time (sec):        1.204
                         Elapsed time (sec):      130.908
  
                   Maximum memory used (kb):      188292.
                   Average memory used (kb):           0.
  
                          Minor page faults:        80744
                          Major page faults:            2
                 Voluntary context switches:         3944
