 running on   12 total cores
 distrk:  each k-point on   12 cores,    1 groups
 distr:  one band on    1 cores,   12 groups
 using from now: INCAR     
 vasp.5.4.4.18Apr17-6-g9f103f2a35 (build Mar 30 2023 15:39:25) complex          
  
 POSCAR found type information on POSCAR  B  C 
 POSCAR found :  2 types and       8 ions
 scaLAPACK will be used

 ----------------------------------------------------------------------------- 
|                                                                             |
|           W    W    AA    RRRRR   N    N  II  N    N   GGGG   !!!           |
|           W    W   A  A   R    R  NN   N  II  NN   N  G    G  !!!           |
|           W    W  A    A  R    R  N N  N  II  N N  N  G       !!!           |
|           W WW W  AAAAAA  RRRRR   N  N N  II  N  N N  G  GGG   !            |
|           WW  WW  A    A  R   R   N   NN  II  N   NN  G    G                |
|           W    W  A    A  R    R  N    N  II  N    N   GGGG   !!!           |
|                                                                             |
|      For optimal performance we recommend to set                            |
|        NCORE= 4 - approx SQRT( number of cores)                             |
|      NCORE specifies how many cores store one orbital (NPAR=cpu/NCORE).     |
|      This setting can  greatly improve the performance of VASP for DFT.     |
|      The default,   NCORE=1            might be grossly inefficient         |
|      on modern multi-core architectures or massively parallel machines.     |
|      Do your own testing !!!!                                               |
|      Unfortunately you need to use the default for GW and RPA calculations. |
|      (for HF NCORE is supported but not extensively tested yet)             |
|                                                                             |
 ----------------------------------------------------------------------------- 

 LDA part: xc-table for Pade appr. of Perdew
 POSCAR, INCAR and KPOINTS ok, starting setup
 FFT: planning ...
 WAVECAR not read
 entering main loop
       N       E                     dE             d eps       ncg     rms          rms(c)
DAV:   1     0.215916565026E+03    0.21592E+03   -0.10515E+04  2064   0.827E+02
DAV:   2    -0.405180505758E+02   -0.25643E+03   -0.24201E+03  3024   0.198E+02
DAV:   3    -0.715303309429E+02   -0.31012E+02   -0.30781E+02  2700   0.827E+01
DAV:   4    -0.722129590619E+02   -0.68263E+00   -0.68070E+00  2952   0.152E+01
DAV:   5    -0.722344041222E+02   -0.21445E-01   -0.21420E-01  2784   0.241E+00    0.129E+01
DAV:   6    -0.681070538487E+02    0.41274E+01   -0.34828E+00  2844   0.859E+00    0.740E+00
DAV:   7    -0.663528222513E+02    0.17542E+01   -0.49162E+00  3048   0.100E+01    0.167E+00
DAV:   8    -0.663157566994E+02    0.37066E-01   -0.13666E-01  2928   0.182E+00    0.246E-01
DAV:   9    -0.663057517453E+02    0.10005E-01   -0.69823E-03  2616   0.398E-01    0.165E-01
DAV:  10    -0.662972621967E+02    0.84895E-02   -0.94925E-03  2304   0.336E-01    0.784E-02
DAV:  11    -0.662955338658E+02    0.17283E-02   -0.31459E-03  2304   0.220E-01    0.599E-02
DAV:  12    -0.662957268264E+02   -0.19296E-03   -0.65300E-04  2088   0.975E-02    0.315E-02
DAV:  13    -0.662977884116E+02   -0.20616E-02   -0.27009E-04  2688   0.690E-02    0.222E-02
DAV:  14    -0.663002079005E+02   -0.24195E-02   -0.45053E-04  2244   0.670E-02    0.178E-02
DAV:  15    -0.663008348974E+02   -0.62700E-03   -0.66046E-05  2496   0.306E-02    0.868E-03
DAV:  16    -0.663011438711E+02   -0.30897E-03   -0.24509E-05  2208   0.178E-02    0.224E-03
DAV:  17    -0.663011757461E+02   -0.31875E-04   -0.14434E-06  2448   0.469E-03    0.102E-03
DAV:  18    -0.663011896289E+02   -0.13883E-04   -0.36360E-07  1740   0.228E-03    0.191E-04
DAV:  19    -0.663011911455E+02   -0.15165E-05   -0.45863E-08  1968   0.781E-04    0.101E-04
DAV:  20    -0.663011919726E+02   -0.82710E-06   -0.21616E-08  1560   0.498E-04
   1 F= -.66301192E+02 E0= -.66301102E+02  d E =-.179948E-03
 writing wavefunctions
