<?xml version="1.0" encoding="ISO-8859-1"?>
<modeling>
 <generator>
  <i name="program" type="string">vasp </i>
  <i name="version" type="string">5.4.4.18Apr17-6-g9f103f2a35  </i>
  <i name="subversion" type="string">(build Mar 30 2023 15:39:25) complex            parallel </i>
  <i name="platform" type="string">LinuxIFC </i>
  <i name="date" type="string">2023 06 30 </i>
  <i name="time" type="string">15:54:44 </i>
 </generator>
 <incar>
  <i type="string" name="SYSTEM"> BC3</i>
  <i type="int" name="ISTART">     0</i>
  <i type="string" name="PREC">accurate</i>
  <i type="string" name="ALGO"> Normal</i>
  <i type="int" name="ICHARG">     2</i>
  <i type="int" name="IBRION">    -1</i>
  <i name="EDIFF">      0.00000100</i>
  <i name="EDIFFG">     -0.00100000</i>
  <i type="int" name="NSW">     0</i>
  <i name="ENCUT">    450.00000000</i>
  <i type="int" name="ISMEAR">     0</i>
  <i name="SIGMA">      0.10000000</i>
  <i type="logical" name="LCHARG"> T  </i>
  <v type="int" name="KPOINT_BSE">    -1     0     0     0</v>
 </incar>
 <structure name="primitive_cell" >
  <crystal>
   <varray name="basis" >
    <v>       4.47300000       2.58200000       0.00000000 </v>
    <v>      -4.47300000       2.58200000       0.00000000 </v>
    <v>       0.00000000       0.00000000      15.00000000 </v>
   </varray>
   <i name="volume">    346.47858000 </i>
   <varray name="rec_basis" >
    <v>       0.11178180       0.19364833       0.00000000 </v>
    <v>      -0.11178180       0.19364833       0.00000000 </v>
    <v>       0.00000000       0.00000000       0.06666667 </v>
   </varray>
  </crystal>
  <varray name="positions" >
   <v>       0.33333300      -0.33333400       0.25000000 </v>
   <v>       0.16666600       0.33333300       0.25000000 </v>
   <v>      -0.33333400      -0.16666700       0.25000000 </v>
   <v>       0.16666600      -0.16666700       0.25000000 </v>
   <v>      -0.16666700       0.16666600       0.25000000 </v>
   <v>       0.33333300       0.16666600       0.25000000 </v>
   <v>      -0.16666700      -0.33333400       0.25000000 </v>
   <v>      -0.33333400       0.33333300       0.25000000 </v>
  </varray>
 </structure>
 <varray name="primitive_index" >
  <v type="int" >        1 </v>
  <v type="int" >        3 </v>
  <v type="int" >        7 </v>
  <v type="int" >        5 </v>
  <v type="int" >        6 </v>
  <v type="int" >        4 </v>
  <v type="int" >        8 </v>
  <v type="int" >        2 </v>
 </varray>
 <kpoints>
  <generation param="Gamma">
   <v type="int" name="divisions">      12       12        1 </v>
   <v name="usershift">      0.00000000       0.00000000       0.00000000 </v>
   <v name="genvec1">      0.08333333       0.00000000       0.00000000 </v>
   <v name="genvec2">      0.00000000       0.08333333       0.00000000 </v>
   <v name="genvec3">      0.00000000       0.00000000       1.00000000 </v>
   <v name="shift">      0.00000000       0.00000000       0.00000000 </v>
  </generation>
  <varray name="kpointlist" >
   <v>       0.00000000       0.00000000       0.00000000 </v>
   <v>       0.08333333       0.00000000       0.00000000 </v>
   <v>       0.16666667      -0.00000000       0.00000000 </v>
   <v>       0.25000000      -0.00000000       0.00000000 </v>
   <v>       0.33333333       0.00000000       0.00000000 </v>
   <v>       0.41666667      -0.00000000       0.00000000 </v>
   <v>       0.50000000      -0.00000000       0.00000000 </v>
   <v>       0.08333333       0.08333333       0.00000000 </v>
   <v>       0.16666667       0.08333333       0.00000000 </v>
   <v>       0.25000000       0.08333333       0.00000000 </v>
   <v>       0.33333333       0.08333333       0.00000000 </v>
   <v>       0.41666667       0.08333333       0.00000000 </v>
   <v>       0.50000000       0.08333333       0.00000000 </v>
   <v>      -0.41666667       0.08333333       0.00000000 </v>
   <v>      -0.33333333       0.08333333       0.00000000 </v>
   <v>      -0.25000000       0.08333333       0.00000000 </v>
   <v>      -0.16666667       0.08333333       0.00000000 </v>
   <v>      -0.08333333       0.08333333       0.00000000 </v>
   <v>       0.16666667       0.16666667       0.00000000 </v>
   <v>       0.25000000       0.16666667       0.00000000 </v>
   <v>       0.33333333       0.16666667       0.00000000 </v>
   <v>       0.41666667       0.16666667       0.00000000 </v>
   <v>       0.50000000       0.16666667       0.00000000 </v>
   <v>      -0.41666667       0.16666667       0.00000000 </v>
   <v>      -0.33333333       0.16666667       0.00000000 </v>
   <v>      -0.25000000       0.16666667       0.00000000 </v>
   <v>      -0.16666667       0.16666667       0.00000000 </v>
   <v>       0.25000000       0.25000000       0.00000000 </v>
   <v>       0.33333333       0.25000000       0.00000000 </v>
   <v>       0.41666667       0.25000000       0.00000000 </v>
   <v>       0.50000000       0.25000000       0.00000000 </v>
   <v>      -0.41666667       0.25000000       0.00000000 </v>
   <v>      -0.33333333       0.25000000       0.00000000 </v>
   <v>      -0.25000000       0.25000000       0.00000000 </v>
   <v>       0.33333333       0.33333333       0.00000000 </v>
   <v>       0.41666667       0.33333333       0.00000000 </v>
   <v>       0.50000000       0.33333333       0.00000000 </v>
   <v>      -0.41666667       0.33333333       0.00000000 </v>
   <v>      -0.33333333       0.33333333       0.00000000 </v>
   <v>       0.41666667       0.41666667       0.00000000 </v>
   <v>       0.50000000       0.41666667       0.00000000 </v>
   <v>      -0.41666667       0.41666667       0.00000000 </v>
   <v>       0.50000000       0.50000000       0.00000000 </v>
  </varray>
  <varray name="weights" >
   <v>       0.00694444 </v>
   <v>       0.02777778 </v>
   <v>       0.02777778 </v>
   <v>       0.02777778 </v>
   <v>       0.02777778 </v>
   <v>       0.02777778 </v>
   <v>       0.01388889 </v>
   <v>       0.01388889 </v>
   <v>       0.02777778 </v>
   <v>       0.02777778 </v>
   <v>       0.02777778 </v>
   <v>       0.02777778 </v>
   <v>       0.02777778 </v>
   <v>       0.02777778 </v>
   <v>       0.02777778 </v>
   <v>       0.02777778 </v>
   <v>       0.02777778 </v>
   <v>       0.01388889 </v>
   <v>       0.01388889 </v>
   <v>       0.02777778 </v>
   <v>       0.02777778 </v>
   <v>       0.02777778 </v>
   <v>       0.02777778 </v>
   <v>       0.02777778 </v>
   <v>       0.02777778 </v>
   <v>       0.02777778 </v>
   <v>       0.01388889 </v>
   <v>       0.01388889 </v>
   <v>       0.02777778 </v>
   <v>       0.02777778 </v>
   <v>       0.02777778 </v>
   <v>       0.02777778 </v>
   <v>       0.02777778 </v>
   <v>       0.01388889 </v>
   <v>       0.01388889 </v>
   <v>       0.02777778 </v>
   <v>       0.02777778 </v>
   <v>       0.02777778 </v>
   <v>       0.01388889 </v>
   <v>       0.01388889 </v>
   <v>       0.02777778 </v>
   <v>       0.01388889 </v>
   <v>       0.00694444 </v>
  </varray>
 </kpoints>
 <parameters>
  <separator name="general" >
   <i type="string" name="SYSTEM">BC3</i>
   <i type="logical" name="LCOMPAT"> F  </i>
  </separator>
  <separator name="electronic" >
   <i type="string" name="PREC">accura</i>
   <i name="ENMAX">    450.00000000</i>
   <i name="ENAUG">    644.87300000</i>
   <i name="EDIFF">      0.00000100</i>
   <i type="int" name="IALGO">    38</i>
   <i type="int" name="IWAVPR">    10</i>
   <i type="int" name="NBANDS">    24</i>
   <i name="NELECT">     30.00000000</i>
   <i type="int" name="TURBO">     0</i>
   <i type="int" name="IRESTART">     0</i>
   <i type="int" name="NREBOOT">     0</i>
   <i type="int" name="NMIN">     0</i>
   <i name="EREF">      0.00000000</i>
   <separator name="electronic smearing" >
    <i type="int" name="ISMEAR">     0</i>
    <i name="SIGMA">      0.10000000</i>
    <i name="KSPACING">      0.50000000</i>
    <i type="logical" name="KGAMMA"> T  </i>
   </separator>
   <separator name="electronic projectors" >
    <i type="logical" name="LREAL"> F  </i>
    <v name="ROPT">      0.00000000      0.00000000</v>
    <i type="int" name="LMAXPAW">  -100</i>
    <i type="int" name="LMAXMIX">     2</i>
    <i type="logical" name="NLSPLINE"> F  </i>
   </separator>
   <separator name="electronic startup" >
    <i type="int" name="ISTART">     0</i>
    <i type="int" name="ICHARG">     2</i>
    <i type="int" name="INIWAV">     1</i>
   </separator>
   <separator name="electronic spin" >
    <i type="int" name="ISPIN">     1</i>
    <i type="logical" name="LNONCOLLINEAR"> F  </i>
    <v name="MAGMOM">      1.00000000      1.00000000      1.00000000      1.00000000      1.00000000      1.00000000      1.00000000      1.00000000</v>
    <i name="NUPDOWN">     -1.00000000</i>
    <i type="logical" name="LSORBIT"> F  </i>
    <v name="SAXIS">      0.00000000      0.00000000      1.00000000</v>
    <i type="logical" name="LSPIRAL"> F  </i>
    <v name="QSPIRAL">      0.00000000      0.00000000      0.00000000</v>
    <i type="logical" name="LZEROZ"> F  </i>
   </separator>
   <separator name="electronic exchange-correlation" >
    <i type="logical" name="LASPH"> F  </i>
    <i type="logical" name="LMETAGGA"> F  </i>
   </separator>
   <separator name="electronic convergence" >
    <i type="int" name="NELM">    60</i>
    <i type="int" name="NELMDL">    -5</i>
    <i type="int" name="NELMIN">     2</i>
    <i name="ENINI">    450.00000000</i>
    <separator name="electronic convergence detail" >
     <i type="logical" name="LDIAG"> T  </i>
     <i type="logical" name="LSUBROT"> F  </i>
     <i name="WEIMIN">      0.00000000</i>
     <i name="EBREAK">      0.00000001</i>
     <i name="DEPER">      0.30000000</i>
     <i type="int" name="NRMM">     4</i>
     <i name="TIME">      0.40000000</i>
    </separator>
   </separator>
   <separator name="electronic mixer" >
    <i name="AMIX">      0.40000000</i>
    <i name="BMIX">      1.00000000</i>
    <i name="AMIN">      0.10000000</i>
    <i name="AMIX_MAG">      1.60000000</i>
    <i name="BMIX_MAG">      1.00000000</i>
    <separator name="electronic mixer details" >
     <i type="int" name="IMIX">     4</i>
     <i type="logical" name="MIXFIRST"> F  </i>
     <i type="int" name="MAXMIX">   -45</i>
     <i name="WC">    100.00000000</i>
     <i type="int" name="INIMIX">     1</i>
     <i type="int" name="MIXPRE">     1</i>
     <i type="int" name="MREMOVE">     5</i>
    </separator>
   </separator>
   <separator name="electronic dipolcorrection" >
    <i type="logical" name="LDIPOL"> F  </i>
    <i type="logical" name="LMONO"> F  </i>
    <i type="int" name="IDIPOL">     0</i>
    <i name="EPSILON">      1.00000000</i>
    <v name="DIPOL">   -100.00000000   -100.00000000   -100.00000000</v>
    <i name="EFIELD">      0.00000000</i>
   </separator>
  </separator>
  <separator name="grids" >
   <i type="int" name="NGX">    36</i>
   <i type="int" name="NGY">    36</i>
   <i type="int" name="NGZ">   108</i>
   <i type="int" name="NGXF">    72</i>
   <i type="int" name="NGYF">    72</i>
   <i type="int" name="NGZF">   216</i>
   <i type="logical" name="ADDGRID"> F  </i>
  </separator>
  <separator name="ionic" >
   <i type="int" name="NSW">     0</i>
   <i type="int" name="IBRION">    -1</i>
   <i type="int" name="MDALGO">     0</i>
   <i type="int" name="ISIF">     2</i>
   <i name="PSTRESS">      0.00000000</i>
   <i name="EDIFFG">     -0.00100000</i>
   <i type="int" name="NFREE">     0</i>
   <i name="POTIM">      0.50000000</i>
   <i name="SMASS">     -3.00000000</i>
   <i name="SCALEE">      1.00000000</i>
  </separator>
  <separator name="ionic md" >
   <i name="TEBEG">      0.00010000</i>
   <i name="TEEND">      0.00010000</i>
   <i type="int" name="NBLOCK">     1</i>
   <i type="int" name="KBLOCK">     1</i>
   <i type="int" name="NPACO">   256</i>
   <i name="APACO">     16.00000000</i>
  </separator>
  <separator name="symmetry" >
   <i type="int" name="ISYM">     2</i>
   <i name="SYMPREC">      0.00001000</i>
  </separator>
  <separator name="dos" >
   <i type="int" name="LORBIT">     0</i>
   <v name="RWIGS">     -1.00000000     -1.00000000</v>
   <i type="int" name="NEDOS">   301</i>
   <i name="EMIN">     10.00000000</i>
   <i name="EMAX">    -10.00000000</i>
   <i name="EFERMI">      0.00000000</i>
  </separator>
  <separator name="writing" >
   <i type="int" name="NWRITE">     2</i>
   <i type="logical" name="LWAVE"> T  </i>
   <i type="logical" name="LDOWNSAMPLE"> F  </i>
   <i type="logical" name="LCHARG"> T  </i>
   <i type="logical" name="LPARD"> F  </i>
   <i type="logical" name="LVTOT"> F  </i>
   <i type="logical" name="LVHAR"> F  </i>
   <i type="logical" name="LELF"> F  </i>
   <i type="logical" name="LOPTICS"> F  </i>
   <v name="STM">      0.00000000      0.00000000      0.00000000      0.00000000      0.00000000      0.00000000      0.00000000</v>
  </separator>
  <separator name="performance" >
   <i type="int" name="NPAR">    12</i>
   <i type="int" name="NSIM">     4</i>
   <i type="int" name="NBLK">    -1</i>
   <i type="logical" name="LPLANE"> T  </i>
   <i type="logical" name="LSCALAPACK"> T  </i>
   <i type="logical" name="LSCAAWARE"> F  </i>
   <i type="logical" name="LSCALU"> F  </i>
   <i type="logical" name="LASYNC"> F  </i>
   <i type="logical" name="LORBITALREAL"> F  </i>
  </separator>
  <separator name="miscellaneous" >
   <i type="int" name="IDIOT">     3</i>
   <i type="int" name="ISPECIAL">     0</i>
   <i type="logical" name="LMUSIC"> F  </i>
   <v name="POMASS">     10.81100000     12.01100000</v>
   <v name="DARWINR">      0.00000000      0.00000000</v>
   <v name="DARWINV">      1.00000000      1.00000000</v>
   <i type="logical" name="LCORR"> T  </i>
  </separator>
  <i type="logical" name="GGA_COMPAT"> T  </i>
  <i type="logical" name="LBERRY"> F  </i>
  <i type="int" name="ICORELEVEL">     0</i>
  <i type="logical" name="LDAU"> F  </i>
  <i type="int" name="I_CONSTRAINED_M">     0</i>
  <separator name="electronic exchange-correlation" >
   <i type="string" name="GGA">--</i>
   <i type="int" name="VOSKOWN">     0</i>
   <i type="logical" name="LHFCALC"> F  </i>
   <i type="string" name="PRECFOCK"></i>
   <i type="logical" name="LSYMGRAD"> F  </i>
   <i type="logical" name="LHFONE"> F  </i>
   <i type="logical" name="LRHFCALC"> F  </i>
   <i type="logical" name="LTHOMAS"> F  </i>
   <i type="logical" name="LMODELHF"> F  </i>
   <i name="ENCUT4O">     -1.00000000</i>
   <i type="int" name="EXXOEP">     0</i>
   <i type="int" name="FOURORBIT">     0</i>
   <i name="AEXX">      0.00000000</i>
   <i name="HFALPHA">      0.00000000</i>
   <i name="MCALPHA">      0.00000000</i>
   <i name="ALDAX">      1.00000000</i>
   <i name="AGGAX">      1.00000000</i>
   <i name="ALDAC">      1.00000000</i>
   <i name="AGGAC">      1.00000000</i>
   <i type="int" name="NKREDX">     1</i>
   <i type="int" name="NKREDY">     1</i>
   <i type="int" name="NKREDZ">     1</i>
   <i type="logical" name="SHIFTRED"> F  </i>
   <i type="logical" name="ODDONLY"> F  </i>
   <i type="logical" name="EVENONLY"> F  </i>
   <i type="int" name="LMAXFOCK">     0</i>
   <i type="int" name="NMAXFOCKAE">     0</i>
   <i type="logical" name="LFOCKAEDFT"> F  </i>
   <i name="HFSCREEN">      0.00000000</i>
   <i name="HFSCREENC">      0.00000000</i>
   <i type="int" name="NBANDSGWLOW">     0</i>
  </separator>
  <separator name="vdW DFT" >
   <i type="logical" name="LUSE_VDW"> F  </i>
   <i name="Zab_VDW">     -0.84910000</i>
   <i name="PARAM1">      0.12340000</i>
   <i name="PARAM2">      1.00000000</i>
   <i name="PARAM3">      0.00000000</i>
  </separator>
  <separator name="model GW" >
   <i type="int" name="MODEL_GW">     0</i>
   <i name="MODEL_EPS0">     25.98589350</i>
   <i name="MODEL_ALPHA">      1.00000000</i>
  </separator>
  <separator name="linear response parameters" >
   <i type="logical" name="LEPSILON"> F  </i>
   <i type="logical" name="LRPA"> F  </i>
   <i type="logical" name="LNABLA"> F  </i>
   <i type="logical" name="LVEL"> F  </i>
   <i type="int" name="KINTER">     0</i>
   <i name="CSHIFT">      0.10000000</i>
   <i name="OMEGAMAX">     -1.00000000</i>
   <i name="DEG_THRESHOLD">      0.00200000</i>
   <i name="RTIME">     -0.10000000</i>
   <i name="WPLASMAI">      0.00000000</i>
   <v name="DFIELD">      0.00000000      0.00000000      0.00000000</v>
   <v name="WPLASMA">      0.00000000      0.00000000      0.00000000      0.00000000      0.00000000      0.00000000      0.00000000      0.00000000      0.00000000</v>
  </separator>
  <separator name="orbital magnetization" >
   <i type="logical" name="NUCIND"> F  </i>
   <v name="MAGPOS">      0.00000000      0.00000000      0.00000000</v>
   <i type="logical" name="LNICSALL"> T  </i>
   <i type="logical" name="ORBITALMAG"> F  </i>
   <i type="logical" name="LMAGBLOCH"> F  </i>
   <i type="logical" name="LCHIMAG"> F  </i>
   <i type="logical" name="LGAUGE"> T  </i>
   <i type="int" name="MAGATOM">     0</i>
   <v name="MAGDIPOL">      0.00000000      0.00000000      0.00000000</v>
   <v name="AVECCONST">      0.00000000      0.00000000      0.00000000</v>
  </separator>
  <separator name="response functions" >
   <i type="logical" name="LADDER"> F  </i>
   <i type="logical" name="LRPAFORCE"> F  </i>
   <i type="logical" name="LFXC"> F  </i>
   <i type="logical" name="LHARTREE"> T  </i>
   <i type="int" name="IBSE">     0</i>
   <v type="int" name="KPOINT">    -1     0     0     0</v>
   <i type="logical" name="LTCTE"> F  </i>
   <i type="logical" name="LTETE"> F  </i>
   <i type="logical" name="LTRIPLET"> F  </i>
   <i type="logical" name="LFXCEPS"> F  </i>
   <i type="logical" name="LFXHEG"> F  </i>
   <i type="int" name="NATURALO">     2</i>
   <i type="logical" name="L2ORDER"> F  </i>
   <i type="logical" name="LMP2LT"> F  </i>
   <i type="logical" name="LUSEW"> F  </i>
   <i name="ENCUTGW">     -2.00000000</i>
   <i name="ENCUTGWSOFT">     -2.00000000</i>
   <i name="ENCUTLF">     -1.00000000</i>
   <i type="int" name="LMAXMP2">    -1</i>
   <i name="SCISSOR">      0.00000000</i>
   <i type="int" name="NOMEGA">     0</i>
   <i type="int" name="NOMEGAR">     0</i>
   <i type="int" name="NBANDSGW">    -1</i>
   <i type="int" name="NBANDSO">    -1</i>
   <i type="int" name="NBANDSV">    -1</i>
   <i type="int" name="NELM">     1</i>
   <i type="int" name="NELMHF">     1</i>
   <i type="int" name="DIM">     3</i>
   <i type="int" name="ANTIRES">     0</i>
   <i name="OMEGAMAX">    -30.00000000</i>
   <i name="OMEGAMIN">    -30.00000000</i>
   <i name="OMEGATL">   -200.00000000</i>
   <i type="int" name="OMEGAGRID">   140</i>
   <i name="CSHIFT">     -0.10000000</i>
   <i type="logical" name="SELFENERGY"> F  </i>
   <i type="logical" name="LSPECTRAL"> F  </i>
   <i type="logical" name="LSPECTRALGW"> F  </i>
   <i type="logical" name="LSINGLES"> F  </i>
   <i type="logical" name="LFERMIGW"> F  </i>
   <i type="logical" name="ODDONLYGW"> F  </i>
   <i type="logical" name="EVENONLYGW"> F  </i>
   <i type="int" name="NKREDLFX">     1</i>
   <i type="int" name="NKREDLFY">     1</i>
   <i type="int" name="NKREDLFZ">     1</i>
   <i type="int" name="MAXMEM">  2800</i>
   <i type="int" name="TELESCOPE">     0</i>
   <i type="int" name="TAUPAR">     1</i>
   <i type="int" name="OMEGAPAR">    -1</i>
   <i name="LAMBDA">      1.00000000</i>
  </separator>
  <separator name="External order field" >
   <i name="OFIELD_KAPPA">      0.00000000</i>
   <v name="OFIELD_K">      0.00000000      0.00000000      0.00000000</v>
   <i name="OFIELD_Q6_NEAR">      0.00000000</i>
   <i name="OFIELD_Q6_FAR">      0.00000000</i>
   <i name="OFIELD_A">      0.00000000</i>
  </separator>
 </parameters>
 <atominfo>
  <atoms>       8 </atoms>
  <types>       2 </types>
  <array name="atoms" >
   <dimension dim="1">ion</dimension>
   <field type="string">element</field>
   <field type="int">atomtype</field>
   <set>
    <rc><c>B </c><c>   1</c></rc>
    <rc><c>B </c><c>   1</c></rc>
    <rc><c>C </c><c>   2</c></rc>
    <rc><c>C </c><c>   2</c></rc>
    <rc><c>C </c><c>   2</c></rc>
    <rc><c>C </c><c>   2</c></rc>
    <rc><c>C </c><c>   2</c></rc>
    <rc><c>C </c><c>   2</c></rc>
   </set>
  </array>
  <array name="atomtypes" >
   <dimension dim="1">type</dimension>
   <field type="int">atomspertype</field>
   <field type="string">element</field>
   <field>mass</field>
   <field>valence</field>
   <field type="string">pseudopotential</field>
   <set>
    <rc><c>   2</c><c>B </c><c>     10.81100000</c><c>      3.00000000</c><c>  PAW_PBE B 06Sep2000                   </c></rc>
    <rc><c>   6</c><c>C </c><c>     12.01100000</c><c>      4.00000000</c><c>  PAW_PBE C 08Apr2002                   </c></rc>
   </set>
  </array>
 </atominfo>
 <structure name="initialpos" >
  <crystal>
   <varray name="basis" >
    <v>       4.47300000       2.58200000       0.00000000 </v>
    <v>      -4.47300000       2.58200000       0.00000000 </v>
    <v>       0.00000000       0.00000000      15.00000000 </v>
   </varray>
   <i name="volume">    346.47858000 </i>
   <varray name="rec_basis" >
    <v>       0.11178180       0.19364833       0.00000000 </v>
    <v>      -0.11178180       0.19364833       0.00000000 </v>
    <v>       0.00000000       0.00000000       0.06666667 </v>
   </varray>
  </crystal>
  <varray name="positions" >
   <v>       0.33333300       0.66666600       0.25000000 </v>
   <v>       0.66666600       0.33333300       0.25000000 </v>
   <v>       0.16666600       0.33333300       0.25000000 </v>
   <v>       0.33333300       0.16666600       0.25000000 </v>
   <v>       0.16666600       0.83333300       0.25000000 </v>
   <v>       0.83333300       0.16666600       0.25000000 </v>
   <v>       0.66666600       0.83333300       0.25000000 </v>
   <v>       0.83333300       0.66666600       0.25000000 </v>
  </varray>
 </structure>
 <calculation>
  <scstep>
   <time name="dav">    4.91    4.91</time>
   <time name="total">    5.02    5.03</time>
   <energy>
    <i name="alphaZ">     14.64016667 </i>
    <i name="ewald">   2593.16580357 </i>
    <i name="hartreedc">  -3354.31385078 </i>
    <i name="XCdc">     90.91428725 </i>
    <i name="pawpsdc">    738.13200929 </i>
    <i name="pawaedc">   -739.83780425 </i>
    <i name="eentropy">     -0.01025996 </i>
    <i name="bandstr">   -151.97768630 </i>
    <i name="atom">   1025.20389953 </i>
    <i name="e_fr_energy">    215.91656503 </i>
    <i name="e_wo_entrp">    215.92682499 </i>
    <i name="e_0_energy">    215.92169501 </i>
   </energy>
  </scstep>
  <scstep>
   <time name="dav">    6.49    6.50</time>
   <time name="total">    6.49    6.50</time>
   <energy>
    <i name="e_fr_energy">    -40.51805058 </i>
    <i name="e_wo_entrp">    -40.51527325 </i>
    <i name="e_0_energy">    -40.51666191 </i>
   </energy>
  </scstep>
  <scstep>
   <time name="dav">    5.96    5.97</time>
   <time name="total">    5.96    5.97</time>
   <energy>
    <i name="e_fr_energy">    -71.53033094 </i>
    <i name="e_wo_entrp">    -71.53033094 </i>
    <i name="e_0_energy">    -71.53033094 </i>
   </energy>
  </scstep>
  <scstep>
   <time name="dav">    6.37    6.38</time>
   <time name="total">    6.37    6.38</time>
   <energy>
    <i name="e_fr_energy">    -72.21295906 </i>
    <i name="e_wo_entrp">    -72.21295906 </i>
    <i name="e_0_energy">    -72.21295906 </i>
   </energy>
  </scstep>
  <scstep>
   <time name="dav">    6.08    6.09</time>
   <time name="total">    6.47    6.48</time>
   <energy>
    <i name="e_fr_energy">    -72.23440412 </i>
    <i name="e_wo_entrp">    -72.23440412 </i>
    <i name="e_0_energy">    -72.23440412 </i>
   </energy>
  </scstep>
  <scstep>
   <time name="dav">    6.17    6.18</time>
   <time name="total">    6.67    6.68</time>
   <energy>
    <i name="e_fr_energy">    -68.10705385 </i>
    <i name="e_wo_entrp">    -68.10705383 </i>
    <i name="e_0_energy">    -68.10705384 </i>
   </energy>
  </scstep>
  <scstep>
   <time name="dav">    6.52    6.53</time>
   <time name="total">    7.02    7.02</time>
   <energy>
    <i name="e_fr_energy">    -66.35282225 </i>
    <i name="e_wo_entrp">    -66.35275912 </i>
    <i name="e_0_energy">    -66.35279069 </i>
   </energy>
  </scstep>
  <scstep>
   <time name="dav">    6.31    6.31</time>
   <time name="total">    6.81    6.81</time>
   <energy>
    <i name="e_fr_energy">    -66.31575670 </i>
    <i name="e_wo_entrp">    -66.31569208 </i>
    <i name="e_0_energy">    -66.31572439 </i>
   </energy>
  </scstep>
  <scstep>
   <time name="dav">    5.79    5.79</time>
   <time name="total">    6.29    6.29</time>
   <energy>
    <i name="e_fr_energy">    -66.30575175 </i>
    <i name="e_wo_entrp">    -66.30565884 </i>
    <i name="e_0_energy">    -66.30570530 </i>
   </energy>
  </scstep>
  <scstep>
   <time name="dav">    5.27    5.27</time>
   <time name="total">    5.77    5.78</time>
   <energy>
    <i name="e_fr_energy">    -66.29726220 </i>
    <i name="e_wo_entrp">    -66.29711487 </i>
    <i name="e_0_energy">    -66.29718853 </i>
   </energy>
  </scstep>
  <scstep>
   <time name="dav">    5.27    5.27</time>
   <time name="total">    5.78    5.79</time>
   <energy>
    <i name="e_fr_energy">    -66.29553387 </i>
    <i name="e_wo_entrp">    -66.29535305 </i>
    <i name="e_0_energy">    -66.29544346 </i>
   </energy>
  </scstep>
  <scstep>
   <time name="dav">    4.91    4.92</time>
   <time name="total">    5.42    5.43</time>
   <energy>
    <i name="e_fr_energy">    -66.29572683 </i>
    <i name="e_wo_entrp">    -66.29553934 </i>
    <i name="e_0_energy">    -66.29563308 </i>
   </energy>
  </scstep>
  <scstep>
   <time name="dav">    5.93    5.94</time>
   <time name="total">    6.43    6.44</time>
   <energy>
    <i name="e_fr_energy">    -66.29778841 </i>
    <i name="e_wo_entrp">    -66.29760817 </i>
    <i name="e_0_energy">    -66.29769829 </i>
   </energy>
  </scstep>
  <scstep>
   <time name="dav">    5.16    5.17</time>
   <time name="total">    5.66    5.67</time>
   <energy>
    <i name="e_fr_energy">    -66.30020790 </i>
    <i name="e_wo_entrp">    -66.30003030 </i>
    <i name="e_0_energy">    -66.30011910 </i>
   </energy>
  </scstep>
  <scstep>
   <time name="dav">    5.59    5.59</time>
   <time name="total">    6.08    6.09</time>
   <energy>
    <i name="e_fr_energy">    -66.30083490 </i>
    <i name="e_wo_entrp">    -66.30065461 </i>
    <i name="e_0_energy">    -66.30074475 </i>
   </energy>
  </scstep>
  <scstep>
   <time name="dav">    5.10    5.11</time>
   <time name="total">    5.61    5.62</time>
   <energy>
    <i name="e_fr_energy">    -66.30114387 </i>
    <i name="e_wo_entrp">    -66.30096399 </i>
    <i name="e_0_energy">    -66.30105393 </i>
   </energy>
  </scstep>
  <scstep>
   <time name="dav">    5.51    5.52</time>
   <time name="total">    6.02    6.02</time>
   <energy>
    <i name="e_fr_energy">    -66.30117575 </i>
    <i name="e_wo_entrp">    -66.30099563 </i>
    <i name="e_0_energy">    -66.30108569 </i>
   </energy>
  </scstep>
  <scstep>
   <time name="dav">    4.38    4.38</time>
   <time name="total">    4.88    4.88</time>
   <energy>
    <i name="e_fr_energy">    -66.30118963 </i>
    <i name="e_wo_entrp">    -66.30100974 </i>
    <i name="e_0_energy">    -66.30109968 </i>
   </energy>
  </scstep>
  <scstep>
   <time name="dav">    4.77    4.77</time>
   <time name="total">    5.26    5.27</time>
   <energy>
    <i name="e_fr_energy">    -66.30119115 </i>
    <i name="e_wo_entrp">    -66.30101122 </i>
    <i name="e_0_energy">    -66.30110118 </i>
   </energy>
  </scstep>
  <scstep>
   <time name="dav">    4.11    4.12</time>
   <time name="total">    4.23    4.23</time>
   <energy>
    <i name="alphaZ">     14.64016667 </i>
    <i name="ewald">   2593.16580357 </i>
    <i name="hartreedc">  -3487.10835034 </i>
    <i name="XCdc">     95.64233567 </i>
    <i name="pawpsdc">   2872.31466180 </i>
    <i name="pawaedc">  -2874.83954669 </i>
    <i name="eentropy">     -0.00017995 </i>
    <i name="bandstr">   -305.31998224 </i>
    <i name="atom">   1025.20389953 </i>
    <i name="e_fr_energy">    -66.30119197 </i>
    <i name="e_wo_entrp">    -66.30101202 </i>
    <i name="e_0_energy">    -66.30110200 </i>
   </energy>
  </scstep>
  <structure>
   <crystal>
    <varray name="basis" >
     <v>       4.47300000       2.58200000       0.00000000 </v>
     <v>      -4.47300000       2.58200000       0.00000000 </v>
     <v>       0.00000000       0.00000000      15.00000000 </v>
    </varray>
    <i name="volume">    346.47858000 </i>
    <varray name="rec_basis" >
     <v>       0.11178180       0.19364833       0.00000000 </v>
     <v>      -0.11178180       0.19364833       0.00000000 </v>
     <v>       0.00000000       0.00000000       0.06666667 </v>
    </varray>
   </crystal>
   <varray name="positions" >
    <v>       0.33333300       0.66666600       0.25000000 </v>
    <v>       0.66666600       0.33333300       0.25000000 </v>
    <v>       0.16666600       0.33333300       0.25000000 </v>
    <v>       0.33333300       0.16666600       0.25000000 </v>
    <v>       0.16666600       0.83333300       0.25000000 </v>
    <v>       0.83333300       0.16666600       0.25000000 </v>
    <v>       0.66666600       0.83333300       0.25000000 </v>
    <v>       0.83333300       0.66666600       0.25000000 </v>
   </varray>
  </structure>
  <varray name="forces" >
   <v>      -0.00332150       0.00000000      -0.00000000 </v>
   <v>       0.00332150       0.00000000      -0.00000000 </v>
   <v>       2.15783946      -3.73407197       0.00000000 </v>
   <v>      -2.15783946      -3.73407197       0.00000000 </v>
   <v>      -4.30917514       0.00000000       0.00000000 </v>
   <v>       4.30917514       0.00000000       0.00000000 </v>
   <v>       2.15783946       3.73407197       0.00000000 </v>
   <v>      -2.15783946       3.73407197       0.00000000 </v>
  </varray>
  <varray name="stress" >
   <v>      -3.08315052       0.00000000       0.00000000 </v>
   <v>       0.00000000      -2.77893264       0.00000000 </v>
   <v>       0.00000000       0.00000000      -0.87303499 </v>
  </varray>
  <energy>
   <i name="e_fr_energy">    -66.30119197 </i>
   <i name="e_wo_entrp">    -66.30110200 </i>
   <i name="e_0_energy">     -0.00017995 </i>
  </energy>
  <time name="totalsc">  124.52  125.86</time>
  <eigenvalues>
   <array>
    <dimension dim="1">band</dimension>
    <dimension dim="2">kpoint</dimension>
    <dimension dim="3">spin</dimension>
    <field>eigene</field>
    <field>occ</field>
    <set>
     <set comment="spin 1">
      <set comment="kpoint 1">
       <r>  -19.5195    1.0000 </r>
       <r>  -15.5902    1.0000 </r>
       <r>  -15.5880    1.0000 </r>
       <r>  -13.8497    1.0000 </r>
       <r>  -13.8491    1.0000 </r>
       <r>  -12.3340    1.0000 </r>
       <r>  -12.1301    1.0000 </r>
       <r>   -8.6261    1.0000 </r>
       <r>   -7.8989    1.0000 </r>
       <r>   -6.5918    1.0000 </r>
       <r>   -6.5897    1.0000 </r>
       <r>   -4.2978    1.0000 </r>
       <r>   -4.2961    1.0000 </r>
       <r>   -3.9113    0.9852 </r>
       <r>   -3.9106    0.9848 </r>
       <r>   -2.6230    0.0000 </r>
       <r>   -0.6593    0.0000 </r>
       <r>   -0.6591    0.0000 </r>
       <r>    0.8382    0.0000 </r>
       <r>    1.0371    0.0000 </r>
       <r>    1.8176    0.0000 </r>
       <r>    2.2542    0.0000 </r>
       <r>    4.2004    0.0000 </r>
       <r>    4.2756    0.0000 </r>
      </set>
      <set comment="kpoint 2">
       <r>  -19.4863    1.0000 </r>
       <r>  -15.7607    1.0000 </r>
       <r>  -15.6583    1.0000 </r>
       <r>  -13.9038    1.0000 </r>
       <r>  -13.7194    1.0000 </r>
       <r>  -12.1946    1.0000 </r>
       <r>  -11.9249    1.0000 </r>
       <r>   -8.5822    1.0000 </r>
       <r>   -7.9717    1.0000 </r>
       <r>   -6.7008    1.0000 </r>
       <r>   -6.6084    1.0000 </r>
       <r>   -4.4301    1.0000 </r>
       <r>   -4.3231    1.0000 </r>
       <r>   -4.0640    1.0000 </r>
       <r>   -3.9903    0.9995 </r>
       <r>   -2.8009    0.0000 </r>
       <r>   -0.5960    0.0000 </r>
       <r>   -0.3643    0.0000 </r>
       <r>    0.8898    0.0000 </r>
       <r>    1.1469    0.0000 </r>
       <r>    1.8791    0.0000 </r>
       <r>    2.3062    0.0000 </r>
       <r>    4.2519    0.0000 </r>
       <r>    4.3568    0.0000 </r>
      </set>
      <set comment="kpoint 3">
       <r>  -19.3877    1.0000 </r>
       <r>  -16.1692    1.0000 </r>
       <r>  -15.8141    1.0000 </r>
       <r>  -14.0410    1.0000 </r>
       <r>  -13.3829    1.0000 </r>
       <r>  -11.8319    1.0000 </r>
       <r>  -11.3895    1.0000 </r>
       <r>   -8.4507    1.0000 </r>
       <r>   -8.2129    1.0000 </r>
       <r>   -7.0125    1.0000 </r>
       <r>   -6.6103    1.0000 </r>
       <r>   -4.8105    1.0000 </r>
       <r>   -4.4997    1.0000 </r>
       <r>   -4.3902    1.0000 </r>
       <r>   -4.2111    1.0000 </r>
       <r>   -3.0947    0.0000 </r>
       <r>   -0.4236    0.0000 </r>
       <r>    0.2339    0.0000 </r>
       <r>    1.0441    0.0000 </r>
       <r>    1.4793    0.0000 </r>
       <r>    2.0766    0.0000 </r>
       <r>    2.4620    0.0000 </r>
       <r>    4.4061    0.0000 </r>
       <r>    4.5696    0.0000 </r>
      </set>
      <set comment="kpoint 4">
       <r>  -19.2279    1.0000 </r>
       <r>  -16.6578    1.0000 </r>
       <r>  -15.9817    1.0000 </r>
       <r>  -14.1980    1.0000 </r>
       <r>  -12.9252    1.0000 </r>
       <r>  -11.3513    1.0000 </r>
       <r>  -10.6459    1.0000 </r>
       <r>   -8.6287    1.0000 </r>
       <r>   -8.2334    1.0000 </r>
       <r>   -7.4745    1.0000 </r>
       <r>   -6.5265    1.0000 </r>
       <r>   -5.3499    1.0000 </r>
       <r>   -5.1586    1.0000 </r>
       <r>   -4.5323    1.0000 </r>
       <r>   -4.4754    1.0000 </r>
       <r>   -3.3194    0.0000 </r>
       <r>   -0.1863    0.0000 </r>
       <r>    0.8054    0.0000 </r>
       <r>    1.3006    0.0000 </r>
       <r>    1.9796    0.0000 </r>
       <r>    2.4867    0.0000 </r>
       <r>    2.7212    0.0000 </r>
       <r>    4.6624    0.0000 </r>
       <r>    4.8511    0.0000 </r>
      </set>
      <set comment="kpoint 5">
       <r>  -19.0179    1.0000 </r>
       <r>  -17.1345    1.0000 </r>
       <r>  -16.1188    1.0000 </r>
       <r>  -14.3291    1.0000 </r>
       <r>  -12.4141    1.0000 </r>
       <r>  -10.8118    1.0000 </r>
       <r>   -9.7916    1.0000 </r>
       <r>   -9.1501    1.0000 </r>
       <r>   -8.0177    1.0000 </r>
       <r>   -7.9339    1.0000 </r>
       <r>   -6.3463    1.0000 </r>
       <r>   -5.9721    1.0000 </r>
       <r>   -5.9389    1.0000 </r>
       <r>   -4.9047    1.0000 </r>
       <r>   -4.5543    1.0000 </r>
       <r>   -3.4684    0.0000 </r>
       <r>    0.0557    0.0000 </r>
       <r>    1.2410    0.0000 </r>
       <r>    1.6586    0.0000 </r>
       <r>    2.4668    0.0000 </r>
       <r>    3.0837    0.0000 </r>
       <r>    3.2114    0.0000 </r>
       <r>    4.0949    0.0000 </r>
       <r>    4.9536    0.0000 </r>
      </set>
      <set comment="kpoint 6">
       <r>  -18.7930    1.0000 </r>
       <r>  -17.5290    1.0000 </r>
       <r>  -16.2063    1.0000 </r>
       <r>  -14.4133    1.0000 </r>
       <r>  -11.9392    1.0000 </r>
       <r>  -10.2698    1.0000 </r>
       <r>   -9.6499    1.0000 </r>
       <r>   -8.9852    1.0000 </r>
       <r>   -8.4596    1.0000 </r>
       <r>   -7.5639    1.0000 </r>
       <r>   -6.8763    1.0000 </r>
       <r>   -6.5011    1.0000 </r>
       <r>   -6.0987    1.0000 </r>
       <r>   -5.2753    1.0000 </r>
       <r>   -4.6086    1.0000 </r>
       <r>   -3.5549    0.0021 </r>
       <r>    0.2380    0.0000 </r>
       <r>    1.5272    0.0000 </r>
       <r>    2.1175    0.0000 </r>
       <r>    2.9585    0.0000 </r>
       <r>    3.3366    0.0000 </r>
       <r>    3.5497    0.0000 </r>
       <r>    3.9251    0.0000 </r>
       <r>    4.4376    0.0000 </r>
      </set>
      <set comment="kpoint 7">
       <r>  -18.6725    1.0000 </r>
       <r>  -17.7074    1.0000 </r>
       <r>  -16.2362    1.0000 </r>
       <r>  -14.4421    1.0000 </r>
       <r>  -11.7115    1.0000 </r>
       <r>   -9.9514    1.0000 </r>
       <r>   -9.8890    1.0000 </r>
       <r>   -9.0196    1.0000 </r>
       <r>   -7.8485    1.0000 </r>
       <r>   -7.7743    1.0000 </r>
       <r>   -7.2556    1.0000 </r>
       <r>   -6.8761    1.0000 </r>
       <r>   -5.9132    1.0000 </r>
       <r>   -5.5029    1.0000 </r>
       <r>   -4.6279    1.0000 </r>
       <r>   -3.5836    0.0070 </r>
       <r>    0.3060    0.0000 </r>
       <r>    1.6301    0.0000 </r>
       <r>    2.6584    0.0000 </r>
       <r>    2.6963    0.0000 </r>
       <r>    3.4834    0.0000 </r>
       <r>    3.5343    0.0000 </r>
       <r>    4.1090    0.0000 </r>
       <r>    4.1260    0.0000 </r>
      </set>
      <set comment="kpoint 8">
       <r>  -19.4204    1.0000 </r>
       <r>  -16.0202    1.0000 </r>
       <r>  -15.8056    1.0000 </r>
       <r>  -13.9296    1.0000 </r>
       <r>  -13.5601    1.0000 </r>
       <r>  -11.9142    1.0000 </r>
       <r>  -11.5756    1.0000 </r>
       <r>   -8.4944    1.0000 </r>
       <r>   -8.1357    1.0000 </r>
       <r>   -6.8674    1.0000 </r>
       <r>   -6.6557    1.0000 </r>
       <r>   -4.6515    1.0000 </r>
       <r>   -4.4210    1.0000 </r>
       <r>   -4.3502    1.0000 </r>
       <r>   -4.1488    1.0000 </r>
       <r>   -2.9959    0.0000 </r>
       <r>   -0.5263    0.0000 </r>
       <r>    0.1126    0.0000 </r>
       <r>    0.9928    0.0000 </r>
       <r>    1.3625    0.0000 </r>
       <r>    2.0074    0.0000 </r>
       <r>    2.4101    0.0000 </r>
       <r>    4.3548    0.0000 </r>
       <r>    4.5201    0.0000 </r>
      </set>
      <set comment="kpoint 9">
       <r>  -19.2909    1.0000 </r>
       <r>  -16.4308    1.0000 </r>
       <r>  -16.0158    1.0000 </r>
       <r>  -13.9921    1.0000 </r>
       <r>  -13.2529    1.0000 </r>
       <r>  -11.4378    1.0000 </r>
       <r>  -10.9746    1.0000 </r>
       <r>   -8.4974    1.0000 </r>
       <r>   -8.3200    1.0000 </r>
       <r>   -7.1658    1.0000 </r>
       <r>   -6.6706    1.0000 </r>
       <r>   -5.0696    1.0000 </r>
       <r>   -4.8786    1.0000 </r>
       <r>   -4.5976    1.0000 </r>
       <r>   -4.4390    1.0000 </r>
       <r>   -3.1375    0.0000 </r>
       <r>   -0.4150    0.0000 </r>
       <r>    0.7616    0.0000 </r>
       <r>    1.1983    0.0000 </r>
       <r>    1.7662    0.0000 </r>
       <r>    2.2957    0.0000 </r>
       <r>    2.6177    0.0000 </r>
       <r>    4.5602    0.0000 </r>
       <r>    4.8068    0.0000 </r>
      </set>
      <set comment="kpoint 10">
       <r>  -19.1049    1.0000 </r>
       <r>  -16.8970    1.0000 </r>
       <r>  -16.1943    1.0000 </r>
       <r>  -14.0995    1.0000 </r>
       <r>  -12.8024    1.0000 </r>
       <r>  -10.8990    1.0000 </r>
       <r>  -10.1948    1.0000 </r>
       <r>   -9.0123    1.0000 </r>
       <r>   -8.0613    1.0000 </r>
       <r>   -7.6057    1.0000 </r>
       <r>   -6.5585    1.0000 </r>
       <r>   -5.6236    1.0000 </r>
       <r>   -5.5956    1.0000 </r>
       <r>   -4.8058    1.0000 </r>
       <r>   -4.7525    1.0000 </r>
       <r>   -3.2076    0.0000 </r>
       <r>   -0.2587    0.0000 </r>
       <r>    1.3199    0.0000 </r>
       <r>    1.5056    0.0000 </r>
       <r>    2.2577    0.0000 </r>
       <r>    2.8460    0.0000 </r>
       <r>    2.9287    0.0000 </r>
       <r>    4.5488    0.0000 </r>
       <r>    4.8646    0.0000 </r>
      </set>
      <set comment="kpoint 11">
       <r>  -18.8818    1.0000 </r>
       <r>  -17.3310    1.0000 </r>
       <r>  -16.3190    1.0000 </r>
       <r>  -14.1919    1.0000 </r>
       <r>  -12.3064    1.0000 </r>
       <r>  -10.3500    1.0000 </r>
       <r>   -9.5911    1.0000 </r>
       <r>   -9.3057    1.0000 </r>
       <r>   -8.1072    1.0000 </r>
       <r>   -7.7246    1.0000 </r>
       <r>   -6.4437    1.0000 </r>
       <r>   -6.3404    1.0000 </r>
       <r>   -6.1999    1.0000 </r>
       <r>   -5.1957    1.0000 </r>
       <r>   -4.8623    1.0000 </r>
       <r>   -3.2477    0.0000 </r>
       <r>   -0.1009    0.0000 </r>
       <r>    1.7128    0.0000 </r>
       <r>    1.9142    0.0000 </r>
       <r>    2.7409    0.0000 </r>
       <r>    3.3426    0.0000 </r>
       <r>    3.6321    0.0000 </r>
       <r>    3.7428    0.0000 </r>
       <r>    4.6741    0.0000 </r>
      </set>
      <set comment="kpoint 12">
       <r>  -18.6882    1.0000 </r>
       <r>  -17.6357    1.0000 </r>
       <r>  -16.3827    1.0000 </r>
       <r>  -14.2426    1.0000 </r>
       <r>  -11.9147    1.0000 </r>
       <r>  -10.0460    1.0000 </r>
       <r>   -9.8458    1.0000 </r>
       <r>   -8.7455    1.0000 </r>
       <r>   -8.2142    1.0000 </r>
       <r>   -7.3489    1.0000 </r>
       <r>   -7.3405    1.0000 </r>
       <r>   -6.7135    1.0000 </r>
       <r>   -6.0921    1.0000 </r>
       <r>   -5.5383    1.0000 </r>
       <r>   -4.9190    1.0000 </r>
       <r>   -3.2684    0.0000 </r>
       <r>   -0.0012    0.0000 </r>
       <r>    1.9248    0.0000 </r>
       <r>    2.4233    0.0000 </r>
       <r>    3.0339    0.0000 </r>
       <r>    3.2618    0.0000 </r>
       <r>    3.8250    0.0000 </r>
       <r>    3.8599    0.0000 </r>
       <r>    4.4794    0.0000 </r>
      </set>
      <set comment="kpoint 13">
       <r>  -18.6882    1.0000 </r>
       <r>  -17.6357    1.0000 </r>
       <r>  -16.3827    1.0000 </r>
       <r>  -14.2425    1.0000 </r>
       <r>  -11.9144    1.0000 </r>
       <r>  -10.0460    1.0000 </r>
       <r>   -9.8470    1.0000 </r>
       <r>   -8.7448    1.0000 </r>
       <r>   -8.2145    1.0000 </r>
       <r>   -7.3484    1.0000 </r>
       <r>   -7.3406    1.0000 </r>
       <r>   -6.7133    1.0000 </r>
       <r>   -6.0918    1.0000 </r>
       <r>   -5.5387    1.0000 </r>
       <r>   -4.9192    1.0000 </r>
       <r>   -3.2681    0.0000 </r>
       <r>   -0.0013    0.0000 </r>
       <r>    1.9246    0.0000 </r>
       <r>    2.4232    0.0000 </r>
       <r>    3.0341    0.0000 </r>
       <r>    3.2617    0.0000 </r>
       <r>    3.8251    0.0000 </r>
       <r>    3.8597    0.0000 </r>
       <r>    4.4796    0.0000 </r>
      </set>
      <set comment="kpoint 14">
       <r>  -18.8818    1.0000 </r>
       <r>  -17.3310    1.0000 </r>
       <r>  -16.3190    1.0000 </r>
       <r>  -14.1916    1.0000 </r>
       <r>  -12.3060    1.0000 </r>
       <r>  -10.3509    1.0000 </r>
       <r>   -9.5924    1.0000 </r>
       <r>   -9.3059    1.0000 </r>
       <r>   -8.1059    1.0000 </r>
       <r>   -7.7247    1.0000 </r>
       <r>   -6.4433    1.0000 </r>
       <r>   -6.3399    1.0000 </r>
       <r>   -6.1997    1.0000 </r>
       <r>   -5.1962    1.0000 </r>
       <r>   -4.8626    1.0000 </r>
       <r>   -3.2470    0.0000 </r>
       <r>   -0.1011    0.0000 </r>
       <r>    1.7124    0.0000 </r>
       <r>    1.9141    0.0000 </r>
       <r>    2.7408    0.0000 </r>
       <r>    3.3424    0.0000 </r>
       <r>    3.6318    0.0000 </r>
       <r>    3.7430    0.0000 </r>
       <r>    4.6949    0.0000 </r>
      </set>
      <set comment="kpoint 15">
       <r>  -19.1049    1.0000 </r>
       <r>  -16.8971    1.0000 </r>
       <r>  -16.1943    1.0000 </r>
       <r>  -14.0989    1.0000 </r>
       <r>  -12.8022    1.0000 </r>
       <r>  -10.8999    1.0000 </r>
       <r>  -10.1952    1.0000 </r>
       <r>   -9.0134    1.0000 </r>
       <r>   -8.0614    1.0000 </r>
       <r>   -7.6044    1.0000 </r>
       <r>   -6.5580    1.0000 </r>
       <r>   -5.6235    1.0000 </r>
       <r>   -5.5953    1.0000 </r>
       <r>   -4.8062    1.0000 </r>
       <r>   -4.7530    1.0000 </r>
       <r>   -3.2064    0.0000 </r>
       <r>   -0.2590    0.0000 </r>
       <r>    1.3195    0.0000 </r>
       <r>    1.5055    0.0000 </r>
       <r>    2.2576    0.0000 </r>
       <r>    2.8457    0.0000 </r>
       <r>    2.9286    0.0000 </r>
       <r>    4.5490    0.0000 </r>
       <r>    4.8645    0.0000 </r>
      </set>
      <set comment="kpoint 16">
       <r>  -19.2910    1.0000 </r>
       <r>  -16.4312    1.0000 </r>
       <r>  -16.0154    1.0000 </r>
       <r>  -13.9912    1.0000 </r>
       <r>  -13.2531    1.0000 </r>
       <r>  -11.4384    1.0000 </r>
       <r>  -10.9750    1.0000 </r>
       <r>   -8.4984    1.0000 </r>
       <r>   -8.3200    1.0000 </r>
       <r>   -7.1650    1.0000 </r>
       <r>   -6.6699    1.0000 </r>
       <r>   -5.0697    1.0000 </r>
       <r>   -4.8785    1.0000 </r>
       <r>   -4.5978    1.0000 </r>
       <r>   -4.4391    1.0000 </r>
       <r>   -3.1362    0.0000 </r>
       <r>   -0.4154    0.0000 </r>
       <r>    0.7613    0.0000 </r>
       <r>    1.1982    0.0000 </r>
       <r>    1.7660    0.0000 </r>
       <r>    2.2956    0.0000 </r>
       <r>    2.6176    0.0000 </r>
       <r>    4.5601    0.0000 </r>
       <r>    4.8083    0.0000 </r>
      </set>
      <set comment="kpoint 17">
       <r>  -19.4204    1.0000 </r>
       <r>  -16.0215    1.0000 </r>
       <r>  -15.8043    1.0000 </r>
       <r>  -13.9285    1.0000 </r>
       <r>  -13.5607    1.0000 </r>
       <r>  -11.9145    1.0000 </r>
       <r>  -11.5760    1.0000 </r>
       <r>   -8.4944    1.0000 </r>
       <r>   -8.1362    1.0000 </r>
       <r>   -6.8681    1.0000 </r>
       <r>   -6.6541    1.0000 </r>
       <r>   -4.6525    1.0000 </r>
       <r>   -4.4203    1.0000 </r>
       <r>   -4.3505    1.0000 </r>
       <r>   -4.1484    1.0000 </r>
       <r>   -2.9949    0.0000 </r>
       <r>   -0.5268    0.0000 </r>
       <r>    0.1123    0.0000 </r>
       <r>    0.9927    0.0000 </r>
       <r>    1.3623    0.0000 </r>
       <r>    2.0073    0.0000 </r>
       <r>    2.4100    0.0000 </r>
       <r>    4.3547    0.0000 </r>
       <r>    4.5232    0.0000 </r>
      </set>
      <set comment="kpoint 18">
       <r>  -19.4863    1.0000 </r>
       <r>  -15.7622    1.0000 </r>
       <r>  -15.6567    1.0000 </r>
       <r>  -13.9032    1.0000 </r>
       <r>  -13.7198    1.0000 </r>
       <r>  -12.1947    1.0000 </r>
       <r>  -11.9251    1.0000 </r>
       <r>   -8.5822    1.0000 </r>
       <r>   -7.9719    1.0000 </r>
       <r>   -6.7023    1.0000 </r>
       <r>   -6.6066    1.0000 </r>
       <r>   -4.4314    1.0000 </r>
       <r>   -4.3218    1.0000 </r>
       <r>   -4.0647    1.0000 </r>
       <r>   -3.9896    0.9995 </r>
       <r>   -2.8005    0.0000 </r>
       <r>   -0.5962    0.0000 </r>
       <r>   -0.3643    0.0000 </r>
       <r>    0.8897    0.0000 </r>
       <r>    1.1468    0.0000 </r>
       <r>    1.8791    0.0000 </r>
       <r>    2.3062    0.0000 </r>
       <r>    4.2518    0.0000 </r>
       <r>    4.3602    0.0000 </r>
      </set>
      <set comment="kpoint 19">
       <r>  -19.1346    1.0000 </r>
       <r>  -16.7404    1.0000 </r>
       <r>  -16.3242    1.0000 </r>
       <r>  -13.8245    1.0000 </r>
       <r>  -13.1335    1.0000 </r>
       <r>  -10.8210    1.0000 </r>
       <r>  -10.4092    1.0000 </r>
       <r>   -8.9958    1.0000 </r>
       <r>   -8.1040    1.0000 </r>
       <r>   -7.2520    1.0000 </r>
       <r>   -6.8120    1.0000 </r>
       <r>   -5.4305    1.0000 </r>
       <r>   -5.3842    1.0000 </r>
       <r>   -5.0016    1.0000 </r>
       <r>   -4.8100    1.0000 </r>
       <r>   -3.0086    0.0000 </r>
       <r>   -0.4840    0.0000 </r>
       <r>    1.4547    0.0000 </r>
       <r>    1.4766    0.0000 </r>
       <r>    2.1389    0.0000 </r>
       <r>    2.6940    0.0000 </r>
       <r>    2.8771    0.0000 </r>
       <r>    4.8154    0.0000 </r>
       <r>    5.2106    0.0000 </r>
      </set>
      <set comment="kpoint 20">
       <r>  -18.9309    1.0000 </r>
       <r>  -17.1080    1.0000 </r>
       <r>  -16.5563    1.0000 </r>
       <r>  -13.7721    1.0000 </r>
       <r>  -12.8072    1.0000 </r>
       <r>  -10.2163    1.0000 </r>
       <r>   -9.6995    1.0000 </r>
       <r>   -9.5488    1.0000 </r>
       <r>   -7.8069    1.0000 </r>
       <r>   -7.5315    1.0000 </r>
       <r>   -6.7627    1.0000 </r>
       <r>   -6.1299    1.0000 </r>
       <r>   -5.8567    1.0000 </r>
       <r>   -5.2768    1.0000 </r>
       <r>   -5.2435    1.0000 </r>
       <r>   -2.8525    0.0000 </r>
       <r>   -0.5247    0.0000 </r>
       <r>    1.8129    0.0000 </r>
       <r>    2.0756    0.0000 </r>
       <r>    2.5883    0.0000 </r>
       <r>    3.2398    0.0000 </r>
       <r>    3.3010    0.0000 </r>
       <r>    4.2496    0.0000 </r>
       <r>    4.8563    0.0000 </r>
      </set>
      <set comment="kpoint 21">
       <r>  -18.7165    1.0000 </r>
       <r>  -17.4523    1.0000 </r>
       <r>  -16.6826    1.0000 </r>
       <r>  -13.7928    1.0000 </r>
       <r>  -12.3848    1.0000 </r>
       <r>  -10.2127    1.0000 </r>
       <r>   -9.6024    1.0000 </r>
       <r>   -8.8264    1.0000 </r>
       <r>   -7.9353    1.0000 </r>
       <r>   -7.4414    1.0000 </r>
       <r>   -6.9536    1.0000 </r>
       <r>   -6.5249    1.0000 </r>
       <r>   -6.3871    1.0000 </r>
       <r>   -5.6614    1.0000 </r>
       <r>   -5.4066    1.0000 </r>
       <r>   -2.7467    0.0000 </r>
       <r>   -0.5302    0.0000 </r>
       <r>    2.2721    0.0000 </r>
       <r>    2.4377    0.0000 </r>
       <r>    3.0974    0.0000 </r>
       <r>    3.4913    0.0000 </r>
       <r>    3.7061    0.0000 </r>
       <r>    3.9820    0.0000 </r>
       <r>    4.4942    0.0000 </r>
      </set>
      <set comment="kpoint 22">
       <r>  -18.6047    1.0000 </r>
       <r>  -17.6118    1.0000 </r>
       <r>  -16.7227    1.0000 </r>
       <r>  -13.8059    1.0000 </r>
       <r>  -12.1601    1.0000 </r>
       <r>  -10.4627    1.0000 </r>
       <r>   -9.3375    1.0000 </r>
       <r>   -8.3626    1.0000 </r>
       <r>   -7.8593    1.0000 </r>
       <r>   -7.7242    1.0000 </r>
       <r>   -7.1431    1.0000 </r>
       <r>   -6.7466    1.0000 </r>
       <r>   -6.3398    1.0000 </r>
       <r>   -5.9118    1.0000 </r>
       <r>   -5.4470    1.0000 </r>
       <r>   -2.7107    0.0000 </r>
       <r>   -0.5269    0.0000 </r>
       <r>    2.5629    0.0000 </r>
       <r>    2.8153    0.0000 </r>
       <r>    2.8486    0.0000 </r>
       <r>    3.6200    0.0000 </r>
       <r>    3.6822    0.0000 </r>
       <r>    4.2676    0.0000 </r>
       <r>    4.2811    0.0000 </r>
      </set>
      <set comment="kpoint 23">
       <r>  -18.7165    1.0000 </r>
       <r>  -17.4523    1.0000 </r>
       <r>  -16.6826    1.0000 </r>
       <r>  -13.7922    1.0000 </r>
       <r>  -12.3845    1.0000 </r>
       <r>  -10.2135    1.0000 </r>
       <r>   -9.6038    1.0000 </r>
       <r>   -8.8269    1.0000 </r>
       <r>   -7.9339    1.0000 </r>
       <r>   -7.4416    1.0000 </r>
       <r>   -6.9528    1.0000 </r>
       <r>   -6.5240    1.0000 </r>
       <r>   -6.3868    1.0000 </r>
       <r>   -5.6622    1.0000 </r>
       <r>   -5.4069    1.0000 </r>
       <r>   -2.7458    0.0000 </r>
       <r>   -0.5306    0.0000 </r>
       <r>    2.2718    0.0000 </r>
       <r>    2.4373    0.0000 </r>
       <r>    3.0971    0.0000 </r>
       <r>    3.4917    0.0000 </r>
       <r>    3.7058    0.0000 </r>
       <r>    3.9817    0.0000 </r>
       <r>    4.4944    0.0000 </r>
      </set>
      <set comment="kpoint 24">
       <r>  -18.9311    1.0000 </r>
       <r>  -17.1082    1.0000 </r>
       <r>  -16.5560    1.0000 </r>
       <r>  -13.7709    1.0000 </r>
       <r>  -12.8074    1.0000 </r>
       <r>  -10.2175    1.0000 </r>
       <r>   -9.7005    1.0000 </r>
       <r>   -9.5500    1.0000 </r>
       <r>   -7.8071    1.0000 </r>
       <r>   -7.5298    1.0000 </r>
       <r>   -6.7618    1.0000 </r>
       <r>   -6.1293    1.0000 </r>
       <r>   -5.8565    1.0000 </r>
       <r>   -5.2771    1.0000 </r>
       <r>   -5.2441    1.0000 </r>
       <r>   -2.8510    0.0000 </r>
       <r>   -0.5255    0.0000 </r>
       <r>    1.8127    0.0000 </r>
       <r>    2.0751    0.0000 </r>
       <r>    2.5881    0.0000 </r>
       <r>    3.2396    0.0000 </r>
       <r>    3.3004    0.0000 </r>
       <r>    4.2501    0.0000 </r>
       <r>    4.8557    0.0000 </r>
      </set>
      <set comment="kpoint 25">
       <r>  -19.1347    1.0000 </r>
       <r>  -16.7412    1.0000 </r>
       <r>  -16.3234    1.0000 </r>
       <r>  -13.8227    1.0000 </r>
       <r>  -13.1344    1.0000 </r>
       <r>  -10.8219    1.0000 </r>
       <r>  -10.4101    1.0000 </r>
       <r>   -8.9972    1.0000 </r>
       <r>   -8.1042    1.0000 </r>
       <r>   -7.2513    1.0000 </r>
       <r>   -6.8102    1.0000 </r>
       <r>   -5.4305    1.0000 </r>
       <r>   -5.3847    1.0000 </r>
       <r>   -5.0015    1.0000 </r>
       <r>   -4.8101    1.0000 </r>
       <r>   -3.0068    0.0000 </r>
       <r>   -0.4848    0.0000 </r>
       <r>    1.4546    0.0000 </r>
       <r>    1.4760    0.0000 </r>
       <r>    2.1386    0.0000 </r>
       <r>    2.6935    0.0000 </r>
       <r>    2.8769    0.0000 </r>
       <r>    4.8152    0.0000 </r>
       <r>    5.2134    0.0000 </r>
      </set>
      <set comment="kpoint 26">
       <r>  -19.2910    1.0000 </r>
       <r>  -16.4320    1.0000 </r>
       <r>  -16.0144    1.0000 </r>
       <r>  -13.9907    1.0000 </r>
       <r>  -13.2536    1.0000 </r>
       <r>  -11.4383    1.0000 </r>
       <r>  -10.9755    1.0000 </r>
       <r>   -8.4984    1.0000 </r>
       <r>   -8.3201    1.0000 </r>
       <r>   -7.1663    1.0000 </r>
       <r>   -6.6682    1.0000 </r>
       <r>   -5.0707    1.0000 </r>
       <r>   -4.8792    1.0000 </r>
       <r>   -4.5967    1.0000 </r>
       <r>   -4.4384    1.0000 </r>
       <r>   -3.1359    0.0000 </r>
       <r>   -0.4156    0.0000 </r>
       <r>    0.7611    0.0000 </r>
       <r>    1.1982    0.0000 </r>
       <r>    1.7658    0.0000 </r>
       <r>    2.2954    0.0000 </r>
       <r>    2.6176    0.0000 </r>
       <r>    4.5600    0.0000 </r>
       <r>    4.8107    0.0000 </r>
      </set>
      <set comment="kpoint 27">
       <r>  -19.3877    1.0000 </r>
       <r>  -16.1705    1.0000 </r>
       <r>  -15.8125    1.0000 </r>
       <r>  -14.0403    1.0000 </r>
       <r>  -13.3834    1.0000 </r>
       <r>  -11.8320    1.0000 </r>
       <r>  -11.3902    1.0000 </r>
       <r>   -8.4507    1.0000 </r>
       <r>   -8.2134    1.0000 </r>
       <r>   -7.0138    1.0000 </r>
       <r>   -6.6081    1.0000 </r>
       <r>   -4.8119    1.0000 </r>
       <r>   -4.5005    1.0000 </r>
       <r>   -4.3889    1.0000 </r>
       <r>   -4.2103    1.0000 </r>
       <r>   -3.0939    0.0000 </r>
       <r>   -0.4240    0.0000 </r>
       <r>    0.2336    0.0000 </r>
       <r>    1.0441    0.0000 </r>
       <r>    1.4791    0.0000 </r>
       <r>    2.0765    0.0000 </r>
       <r>    2.4619    0.0000 </r>
       <r>    4.4061    0.0000 </r>
       <r>    4.5733    0.0000 </r>
      </set>
      <set comment="kpoint 28">
       <r>  -18.7294    1.0000 </r>
       <r>  -17.3000    1.0000 </r>
       <r>  -16.8828    1.0000 </r>
       <r>  -13.4447    1.0000 </r>
       <r>  -12.7457    1.0000 </r>
       <r>  -10.2692    1.0000 </r>
       <r>   -9.3747    1.0000 </r>
       <r>   -9.0928    1.0000 </r>
       <r>   -7.4783    1.0000 </r>
       <r>   -7.4640    1.0000 </r>
       <r>   -6.9952    1.0000 </r>
       <r>   -6.7168    1.0000 </r>
       <r>   -6.0996    1.0000 </r>
       <r>   -5.7553    1.0000 </r>
       <r>   -5.7544    1.0000 </r>
       <r>   -2.4650    0.0000 </r>
       <r>   -0.8170    0.0000 </r>
       <r>    2.2217    0.0000 </r>
       <r>    2.7596    0.0000 </r>
       <r>    2.9990    0.0000 </r>
       <r>    3.6542    0.0000 </r>
       <r>    3.8215    0.0000 </r>
       <r>    4.0383    0.0000 </r>
       <r>    4.0621    0.0000 </r>
      </set>
      <set comment="kpoint 29">
       <r>  -18.5661    1.0000 </r>
       <r>  -17.4647    1.0000 </r>
       <r>  -17.0504    1.0000 </r>
       <r>  -13.3054    1.0000 </r>
       <r>  -12.5572    1.0000 </r>
       <r>  -10.7027    1.0000 </r>
       <r>   -8.8616    1.0000 </r>
       <r>   -8.3760    1.0000 </r>
       <r>   -7.7065    1.0000 </r>
       <r>   -7.4707    1.0000 </r>
       <r>   -7.1143    1.0000 </r>
       <r>   -6.7634    1.0000 </r>
       <r>   -6.4787    1.0000 </r>
       <r>   -6.2118    1.0000 </r>
       <r>   -5.9462    1.0000 </r>
       <r>   -2.1785    0.0000 </r>
       <r>   -1.0442    0.0000 </r>
       <r>    2.7312    0.0000 </r>
       <r>    3.1157    0.0000 </r>
       <r>    3.3411    0.0000 </r>
       <r>    3.5292    0.0000 </r>
       <r>    3.9501    0.0000 </r>
       <r>    4.0889    0.0000 </r>
       <r>    4.1723    0.0000 </r>
      </set>
      <set comment="kpoint 30">
       <r>  -18.5662    1.0000 </r>
       <r>  -17.4649    1.0000 </r>
       <r>  -17.0502    1.0000 </r>
       <r>  -13.3047    1.0000 </r>
       <r>  -12.5576    1.0000 </r>
       <r>  -10.7031    1.0000 </r>
       <r>   -8.8626    1.0000 </r>
       <r>   -8.3769    1.0000 </r>
       <r>   -7.7055    1.0000 </r>
       <r>   -7.4699    1.0000 </r>
       <r>   -7.1146    1.0000 </r>
       <r>   -6.7623    1.0000 </r>
       <r>   -6.4785    1.0000 </r>
       <r>   -6.2126    1.0000 </r>
       <r>   -5.9462    1.0000 </r>
       <r>   -2.1775    0.0000 </r>
       <r>   -1.0450    0.0000 </r>
       <r>    2.7307    0.0000 </r>
       <r>    3.1155    0.0000 </r>
       <r>    3.3417    0.0000 </r>
       <r>    3.5288    0.0000 </r>
       <r>    3.9499    0.0000 </r>
       <r>    4.0891    0.0000 </r>
       <r>    4.1718    0.0000 </r>
      </set>
      <set comment="kpoint 31">
       <r>  -18.7295    1.0000 </r>
       <r>  -17.3006    1.0000 </r>
       <r>  -16.8820    1.0000 </r>
       <r>  -13.4426    1.0000 </r>
       <r>  -12.7471    1.0000 </r>
       <r>  -10.2701    1.0000 </r>
       <r>   -9.3762    1.0000 </r>
       <r>   -9.0941    1.0000 </r>
       <r>   -7.4786    1.0000 </r>
       <r>   -7.4628    1.0000 </r>
       <r>   -6.9938    1.0000 </r>
       <r>   -6.7159    1.0000 </r>
       <r>   -6.0998    1.0000 </r>
       <r>   -5.7558    1.0000 </r>
       <r>   -5.7540    1.0000 </r>
       <r>   -2.4631    0.0000 </r>
       <r>   -0.8183    0.0000 </r>
       <r>    2.2213    0.0000 </r>
       <r>    2.7591    0.0000 </r>
       <r>    2.9985    0.0000 </r>
       <r>    3.6538    0.0000 </r>
       <r>    3.8207    0.0000 </r>
       <r>    4.0384    0.0000 </r>
       <r>    4.0622    0.0000 </r>
      </set>
      <set comment="kpoint 32">
       <r>  -18.9311    1.0000 </r>
       <r>  -17.1089    1.0000 </r>
       <r>  -16.5552    1.0000 </r>
       <r>  -13.7701    1.0000 </r>
       <r>  -12.8083    1.0000 </r>
       <r>  -10.2174    1.0000 </r>
       <r>   -9.7009    1.0000 </r>
       <r>   -9.5500    1.0000 </r>
       <r>   -7.8072    1.0000 </r>
       <r>   -7.5310    1.0000 </r>
       <r>   -6.7603    1.0000 </r>
       <r>   -6.1300    1.0000 </r>
       <r>   -5.8574    1.0000 </r>
       <r>   -5.2761    1.0000 </r>
       <r>   -5.2433    1.0000 </r>
       <r>   -2.8505    0.0000 </r>
       <r>   -0.5259    0.0000 </r>
       <r>    1.8126    0.0000 </r>
       <r>    2.0750    0.0000 </r>
       <r>    2.5879    0.0000 </r>
       <r>    3.2395    0.0000 </r>
       <r>    3.3001    0.0000 </r>
       <r>    4.2490    0.0000 </r>
       <r>    4.8571    0.0000 </r>
      </set>
      <set comment="kpoint 33">
       <r>  -19.1050    1.0000 </r>
       <r>  -16.8980    1.0000 </r>
       <r>  -16.1929    1.0000 </r>
       <r>  -14.0981    1.0000 </r>
       <r>  -12.8031    1.0000 </r>
       <r>  -10.8998    1.0000 </r>
       <r>  -10.1962    1.0000 </r>
       <r>   -9.0133    1.0000 </r>
       <r>   -8.0615    1.0000 </r>
       <r>   -7.6058    1.0000 </r>
       <r>   -6.5559    1.0000 </r>
       <r>   -5.6246    1.0000 </r>
       <r>   -5.5964    1.0000 </r>
       <r>   -4.8049    1.0000 </r>
       <r>   -4.7516    1.0000 </r>
       <r>   -3.2058    0.0000 </r>
       <r>   -0.2596    0.0000 </r>
       <r>    1.3192    0.0000 </r>
       <r>    1.5054    0.0000 </r>
       <r>    2.2574    0.0000 </r>
       <r>    2.8453    0.0000 </r>
       <r>    2.9284    0.0000 </r>
       <r>    4.5479    0.0000 </r>
       <r>    4.8644    0.0000 </r>
      </set>
      <set comment="kpoint 34">
       <r>  -19.2279    1.0000 </r>
       <r>  -16.6589    1.0000 </r>
       <r>  -15.9802    1.0000 </r>
       <r>  -14.1972    1.0000 </r>
       <r>  -12.9258    1.0000 </r>
       <r>  -11.3516    1.0000 </r>
       <r>  -10.6470    1.0000 </r>
       <r>   -8.6292    1.0000 </r>
       <r>   -8.2335    1.0000 </r>
       <r>   -7.4755    1.0000 </r>
       <r>   -6.5241    1.0000 </r>
       <r>   -5.3511    1.0000 </r>
       <r>   -5.1597    1.0000 </r>
       <r>   -4.5312    1.0000 </r>
       <r>   -4.4740    1.0000 </r>
       <r>   -3.3183    0.0000 </r>
       <r>   -0.1868    0.0000 </r>
       <r>    0.8049    0.0000 </r>
       <r>    1.3005    0.0000 </r>
       <r>    1.9793    0.0000 </r>
       <r>    2.4862    0.0000 </r>
       <r>    2.7211    0.0000 </r>
       <r>    4.6622    0.0000 </r>
       <r>    4.8551    0.0000 </r>
      </set>
      <set comment="kpoint 35">
       <r>  -18.5022    1.0000 </r>
       <r>  -17.3307    1.0000 </r>
       <r>  -17.3297    1.0000 </r>
       <r>  -12.8613    1.0000 </r>
       <r>  -12.8586    1.0000 </r>
       <r>  -10.9110    1.0000 </r>
       <r>   -8.1942    1.0000 </r>
       <r>   -8.1932    1.0000 </r>
       <r>   -8.0602    1.0000 </r>
       <r>   -7.5374    1.0000 </r>
       <r>   -6.9159    1.0000 </r>
       <r>   -6.6836    1.0000 </r>
       <r>   -6.6830    1.0000 </r>
       <r>   -6.3647    1.0000 </r>
       <r>   -6.3640    1.0000 </r>
       <r>   -1.6023    0.0000 </r>
       <r>   -1.6001    0.0000 </r>
       <r>    3.2773    0.0000 </r>
       <r>    3.2778    0.0000 </r>
       <r>    3.3180    0.0000 </r>
       <r>    3.4335    0.0000 </r>
       <r>    4.0301    0.0000 </r>
       <r>    4.0307    0.0000 </r>
       <r>    4.7361    0.0000 </r>
      </set>
      <set comment="kpoint 36">
       <r>  -18.5662    1.0000 </r>
       <r>  -17.4655    1.0000 </r>
       <r>  -17.0494    1.0000 </r>
       <r>  -13.3033    1.0000 </r>
       <r>  -12.5592    1.0000 </r>
       <r>  -10.7030    1.0000 </r>
       <r>   -8.8631    1.0000 </r>
       <r>   -8.3773    1.0000 </r>
       <r>   -7.7060    1.0000 </r>
       <r>   -7.4699    1.0000 </r>
       <r>   -7.1147    1.0000 </r>
       <r>   -6.7618    1.0000 </r>
       <r>   -6.4792    1.0000 </r>
       <r>   -6.2117    1.0000 </r>
       <r>   -5.9454    1.0000 </r>
       <r>   -2.1765    0.0000 </r>
       <r>   -1.0459    0.0000 </r>
       <r>    2.7306    0.0000 </r>
       <r>    3.1153    0.0000 </r>
       <r>    3.3408    0.0000 </r>
       <r>    3.5285    0.0000 </r>
       <r>    3.9509    0.0000 </r>
       <r>    4.0884    0.0000 </r>
       <r>    4.1717    0.0000 </r>
      </set>
      <set comment="kpoint 37">
       <r>  -18.7166    1.0000 </r>
       <r>  -17.4531    1.0000 </r>
       <r>  -16.6815    1.0000 </r>
       <r>  -13.7910    1.0000 </r>
       <r>  -12.3862    1.0000 </r>
       <r>  -10.2133    1.0000 </r>
       <r>   -9.6039    1.0000 </r>
       <r>   -8.8279    1.0000 </r>
       <r>   -7.9345    1.0000 </r>
       <r>   -7.4418    1.0000 </r>
       <r>   -6.9540    1.0000 </r>
       <r>   -6.5226    1.0000 </r>
       <r>   -6.3876    1.0000 </r>
       <r>   -5.6607    1.0000 </r>
       <r>   -5.4057    1.0000 </r>
       <r>   -2.7448    0.0000 </r>
       <r>   -0.5316    0.0000 </r>
       <r>    2.2716    0.0000 </r>
       <r>    2.4370    0.0000 </r>
       <r>    3.0968    0.0000 </r>
       <r>    3.4908    0.0000 </r>
       <r>    3.7056    0.0000 </r>
       <r>    3.9809    0.0000 </r>
       <r>    4.4940    0.0000 </r>
      </set>
      <set comment="kpoint 38">
       <r>  -18.8819    1.0000 </r>
       <r>  -17.3319    1.0000 </r>
       <r>  -16.3176    1.0000 </r>
       <r>  -14.1906    1.0000 </r>
       <r>  -12.3073    1.0000 </r>
       <r>  -10.3511    1.0000 </r>
       <r>   -9.5920    1.0000 </r>
       <r>   -9.3071    1.0000 </r>
       <r>   -8.1068    1.0000 </r>
       <r>   -7.7249    1.0000 </r>
       <r>   -6.4446    1.0000 </r>
       <r>   -6.3380    1.0000 </r>
       <r>   -6.2006    1.0000 </r>
       <r>   -5.1945    1.0000 </r>
       <r>   -4.8612    1.0000 </r>
       <r>   -3.2460    0.0000 </r>
       <r>   -0.1020    0.0000 </r>
       <r>    1.7120    0.0000 </r>
       <r>    1.9139    0.0000 </r>
       <r>    2.7405    0.0000 </r>
       <r>    3.3422    0.0000 </r>
       <r>    3.6310    0.0000 </r>
       <r>    3.7421    0.0000 </r>
       <r>    4.6739    0.0000 </r>
      </set>
      <set comment="kpoint 39">
       <r>  -19.0180    1.0000 </r>
       <r>  -17.1355    1.0000 </r>
       <r>  -16.1173    1.0000 </r>
       <r>  -14.3281    1.0000 </r>
       <r>  -12.4150    1.0000 </r>
       <r>  -10.8123    1.0000 </r>
       <r>   -9.7930    1.0000 </r>
       <r>   -9.1504    1.0000 </r>
       <r>   -8.0183    1.0000 </r>
       <r>   -7.9342    1.0000 </r>
       <r>   -6.3439    1.0000 </r>
       <r>   -5.9734    1.0000 </r>
       <r>   -5.9398    1.0000 </r>
       <r>   -4.9033    1.0000 </r>
       <r>   -4.5529    1.0000 </r>
       <r>   -3.4671    0.0000 </r>
       <r>    0.0549    0.0000 </r>
       <r>    1.2403    0.0000 </r>
       <r>    1.6584    0.0000 </r>
       <r>    2.4665    0.0000 </r>
       <r>    3.0834    0.0000 </r>
       <r>    3.2105    0.0000 </r>
       <r>    4.0940    0.0000 </r>
       <r>    4.9531    0.0000 </r>
      </set>
      <set comment="kpoint 40">
       <r>  -18.6048    1.0000 </r>
       <r>  -17.6126    1.0000 </r>
       <r>  -16.7215    1.0000 </r>
       <r>  -13.8043    1.0000 </r>
       <r>  -12.1620    1.0000 </r>
       <r>  -10.4625    1.0000 </r>
       <r>   -9.3389    1.0000 </r>
       <r>   -8.3626    1.0000 </r>
       <r>   -7.8607    1.0000 </r>
       <r>   -7.7243    1.0000 </r>
       <r>   -7.1434    1.0000 </r>
       <r>   -6.7472    1.0000 </r>
       <r>   -6.3380    1.0000 </r>
       <r>   -5.9104    1.0000 </r>
       <r>   -5.4459    1.0000 </r>
       <r>   -2.7092    0.0000 </r>
       <r>   -0.5282    0.0000 </r>
       <r>    2.5624    0.0000 </r>
       <r>    2.8148    0.0000 </r>
       <r>    2.8481    0.0000 </r>
       <r>    3.6192    0.0000 </r>
       <r>    3.6818    0.0000 </r>
       <r>    4.2671    0.0000 </r>
       <r>    4.2806    0.0000 </r>
      </set>
      <set comment="kpoint 41">
       <r>  -18.6883    1.0000 </r>
       <r>  -17.6365    1.0000 </r>
       <r>  -16.3813    1.0000 </r>
       <r>  -14.2413    1.0000 </r>
       <r>  -11.9162    1.0000 </r>
       <r>  -10.0458    1.0000 </r>
       <r>   -9.8476    1.0000 </r>
       <r>   -8.7455    1.0000 </r>
       <r>   -8.2152    1.0000 </r>
       <r>   -7.3499    1.0000 </r>
       <r>   -7.3409    1.0000 </r>
       <r>   -6.7141    1.0000 </r>
       <r>   -6.0898    1.0000 </r>
       <r>   -5.5368    1.0000 </r>
       <r>   -4.9179    1.0000 </r>
       <r>   -3.2668    0.0000 </r>
       <r>   -0.0023    0.0000 </r>
       <r>    1.9239    0.0000 </r>
       <r>    2.4228    0.0000 </r>
       <r>    3.0334    0.0000 </r>
       <r>    3.2612    0.0000 </r>
       <r>    3.8242    0.0000 </r>
       <r>    3.8594    0.0000 </r>
       <r>    4.4789    0.0000 </r>
      </set>
      <set comment="kpoint 42">
       <r>  -18.7931    1.0000 </r>
       <r>  -17.5299    1.0000 </r>
       <r>  -16.2047    1.0000 </r>
       <r>  -14.4123    1.0000 </r>
       <r>  -11.9405    1.0000 </r>
       <r>  -10.2708    1.0000 </r>
       <r>   -9.6497    1.0000 </r>
       <r>   -8.9865    1.0000 </r>
       <r>   -8.4600    1.0000 </r>
       <r>   -7.5642    1.0000 </r>
       <r>   -6.8777    1.0000 </r>
       <r>   -6.5019    1.0000 </r>
       <r>   -6.0964    1.0000 </r>
       <r>   -5.2736    1.0000 </r>
       <r>   -4.6072    1.0000 </r>
       <r>   -3.5536    0.0020 </r>
       <r>    0.2371    0.0000 </r>
       <r>    1.5264    0.0000 </r>
       <r>    2.1172    0.0000 </r>
       <r>    2.9580    0.0000 </r>
       <r>    3.3359    0.0000 </r>
       <r>    3.5494    0.0000 </r>
       <r>    3.9239    0.0000 </r>
       <r>    4.4373    0.0000 </r>
      </set>
      <set comment="kpoint 43">
       <r>  -18.6726    1.0000 </r>
       <r>  -17.7083    1.0000 </r>
       <r>  -16.2347    1.0000 </r>
       <r>  -14.4411    1.0000 </r>
       <r>  -11.7132    1.0000 </r>
       <r>   -9.9531    1.0000 </r>
       <r>   -9.8885    1.0000 </r>
       <r>   -9.0194    1.0000 </r>
       <r>   -7.8503    1.0000 </r>
       <r>   -7.7752    1.0000 </r>
       <r>   -7.2560    1.0000 </r>
       <r>   -6.8768    1.0000 </r>
       <r>   -5.9110    1.0000 </r>
       <r>   -5.5010    1.0000 </r>
       <r>   -4.6264    1.0000 </r>
       <r>   -3.5823    0.0066 </r>
       <r>    0.3051    0.0000 </r>
       <r>    1.6292    0.0000 </r>
       <r>    2.6579    0.0000 </r>
       <r>    2.6958    0.0000 </r>
       <r>    3.4826    0.0000 </r>
       <r>    3.5338    0.0000 </r>
       <r>    4.1085    0.0000 </r>
       <r>    4.1255    0.0000 </r>
      </set>
     </set>
    </set>
   </array>
  </eigenvalues>
  <separator name="orbital magnetization" >
   <v name="MAGDIPOLOUT">      0.00000000      0.00000000      0.00000000</v>
  </separator>
  <dos>
   <i name="efermi">     -3.75744415 </i>
   <total>
    <array>
     <dimension dim="1">gridpoints</dimension>
     <dimension dim="2">spin</dimension>
     <field>energy</field>
     <field>total</field>
     <field>integrated</field>
     <set>
      <set comment="spin 1">
       <r>   -20.7562     0.0000     0.0000 </r>
       <r>   -20.6655     0.0000     0.0000 </r>
       <r>   -20.5748     0.0000     0.0000 </r>
       <r>   -20.4841     0.0000     0.0000 </r>
       <r>   -20.3934     0.0000     0.0000 </r>
       <r>   -20.3027     0.0000     0.0000 </r>
       <r>   -20.2120     0.0000     0.0000 </r>
       <r>   -20.1214     0.0000     0.0000 </r>
       <r>   -20.0307     0.0000     0.0000 </r>
       <r>   -19.9400     0.0000     0.0000 </r>
       <r>   -19.8493     0.0000     0.0000 </r>
       <r>   -19.7586     0.0001     0.0000 </r>
       <r>   -19.6679     0.0076     0.0007 </r>
       <r>   -19.5772     0.1309     0.0126 </r>
       <r>   -19.4865     0.6641     0.0728 </r>
       <r>   -19.3959     1.3073     0.1914 </r>
       <r>   -19.3052     1.5461     0.3316 </r>
       <r>   -19.2145     1.5883     0.4756 </r>
       <r>   -19.1238     1.6506     0.6253 </r>
       <r>   -19.0331     1.7202     0.7813 </r>
       <r>   -18.9424     1.7534     0.9403 </r>
       <r>   -18.8517     2.0826     1.1292 </r>
       <r>   -18.7610     2.2233     1.3308 </r>
       <r>   -18.6704     2.9531     1.5986 </r>
       <r>   -18.5797     2.5485     1.8297 </r>
       <r>   -18.4890     1.4400     1.9603 </r>
       <r>   -18.3983     0.3983     1.9964 </r>
       <r>   -18.3076     0.0384     1.9999 </r>
       <r>   -18.2169     0.0011     2.0000 </r>
       <r>   -18.1262     0.0000     2.0000 </r>
       <r>   -18.0355     0.0000     2.0000 </r>
       <r>   -17.9449     0.0002     2.0000 </r>
       <r>   -17.8542     0.0108     2.0010 </r>
       <r>   -17.7635     0.1687     2.0163 </r>
       <r>   -17.6728     0.8943     2.0974 </r>
       <r>   -17.5821     1.7673     2.2577 </r>
       <r>   -17.4914     2.1622     2.4538 </r>
       <r>   -17.4007     2.4830     2.6789 </r>
       <r>   -17.3100     2.1880     2.8774 </r>
       <r>   -17.2194     1.4775     3.0113 </r>
       <r>   -17.1287     1.4644     3.1441 </r>
       <r>   -17.0380     2.0470     3.3298 </r>
       <r>   -16.9473     1.5603     3.4713 </r>
       <r>   -16.8566     1.5418     3.6111 </r>
       <r>   -16.7659     1.5200     3.7490 </r>
       <r>   -16.6752     2.1337     3.9425 </r>
       <r>   -16.5845     2.0417     4.1276 </r>
       <r>   -16.4939     1.6069     4.2733 </r>
       <r>   -16.4032     2.1179     4.4654 </r>
       <r>   -16.3125     2.8012     4.7194 </r>
       <r>   -16.2218     2.7206     4.9662 </r>
       <r>   -16.1311     2.5902     5.2011 </r>
       <r>   -16.0404     2.1681     5.3977 </r>
       <r>   -15.9497     1.9263     5.5724 </r>
       <r>   -15.8590     1.1805     5.6794 </r>
       <r>   -15.7684     1.3484     5.8017 </r>
       <r>   -15.6777     1.1839     5.9091 </r>
       <r>   -15.5870     0.6998     5.9725 </r>
       <r>   -15.4963     0.2634     5.9964 </r>
       <r>   -15.4056     0.0377     5.9999 </r>
       <r>   -15.3149     0.0016     6.0000 </r>
       <r>   -15.2242     0.0000     6.0000 </r>
       <r>   -15.1335     0.0000     6.0000 </r>
       <r>   -15.0429     0.0000     6.0000 </r>
       <r>   -14.9522     0.0000     6.0000 </r>
       <r>   -14.8615     0.0000     6.0000 </r>
       <r>   -14.7708     0.0000     6.0000 </r>
       <r>   -14.6801     0.0002     6.0000 </r>
       <r>   -14.5894     0.0141     6.0013 </r>
       <r>   -14.4987     0.1935     6.0188 </r>
       <r>   -14.4080     0.7324     6.0853 </r>
       <r>   -14.3174     1.2340     6.1972 </r>
       <r>   -14.2267     2.0791     6.3857 </r>
       <r>   -14.1360     2.6112     6.6225 </r>
       <r>   -14.0453     2.3120     6.8322 </r>
       <r>   -13.9546     2.2538     7.0366 </r>
       <r>   -13.8639     2.4446     7.2583 </r>
       <r>   -13.7732     3.2008     7.5486 </r>
       <r>   -13.6825     2.3813     7.7645 </r>
       <r>   -13.5919     0.8767     7.8440 </r>
       <r>   -13.5012     0.7011     7.9076 </r>
       <r>   -13.4105     1.0227     8.0003 </r>
       <r>   -13.3198     1.6375     8.1488 </r>
       <r>   -13.2291     1.9305     8.3239 </r>
       <r>   -13.1384     1.1943     8.4322 </r>
       <r>   -13.0477     0.5307     8.4803 </r>
       <r>   -12.9570     0.4704     8.5230 </r>
       <r>   -12.8664     1.3626     8.6466 </r>
       <r>   -12.7757     2.4199     8.8660 </r>
       <r>   -12.6850     1.6581     9.0164 </r>
       <r>   -12.5943     0.8251     9.0912 </r>
       <r>   -12.5036     1.0724     9.1885 </r>
       <r>   -12.4129     1.4304     9.3182 </r>
       <r>   -12.3222     2.0007     9.4996 </r>
       <r>   -12.2315     1.6607     9.6502 </r>
       <r>   -12.1409     1.2033     9.7594 </r>
       <r>   -12.0502     0.7365     9.8262 </r>
       <r>   -11.9595     1.3283     9.9466 </r>
       <r>   -11.8688     2.4238    10.1664 </r>
       <r>   -11.7781     1.4635    10.2992 </r>
       <r>   -11.6874     0.5480    10.3489 </r>
       <r>   -11.5967     0.4888    10.3932 </r>
       <r>   -11.5060     0.7848    10.4644 </r>
       <r>   -11.4154     1.4188    10.5930 </r>
       <r>   -11.3247     1.4493    10.7244 </r>
       <r>   -11.2340     0.5276    10.7723 </r>
       <r>   -11.1433     0.0753    10.7791 </r>
       <r>   -11.0526     0.2712    10.8037 </r>
       <r>   -10.9619     1.2248    10.9148 </r>
       <r>   -10.8712     2.0428    11.1001 </r>
       <r>   -10.7805     1.8829    11.2708 </r>
       <r>   -10.6899     1.6142    11.4172 </r>
       <r>   -10.5992     1.1893    11.5250 </r>
       <r>   -10.5085     0.6441    11.5835 </r>
       <r>   -10.4178     1.1448    11.6873 </r>
       <r>   -10.3271     2.0586    11.8740 </r>
       <r>   -10.2364     3.2399    12.1678 </r>
       <r>   -10.1457     3.3031    12.4673 </r>
       <r>   -10.0550     1.7488    12.6259 </r>
       <r>    -9.9644     1.1903    12.7339 </r>
       <r>    -9.8737     1.2992    12.8517 </r>
       <r>    -9.7830     1.7309    13.0087 </r>
       <r>    -9.6923     2.0447    13.1941 </r>
       <r>    -9.6016     3.0287    13.4687 </r>
       <r>    -9.5109     2.7756    13.7205 </r>
       <r>    -9.4202     1.3067    13.8390 </r>
       <r>    -9.3295     1.5024    13.9752 </r>
       <r>    -9.2389     1.5104    14.1122 </r>
       <r>    -9.1482     1.0315    14.2057 </r>
       <r>    -9.0575     1.6835    14.3584 </r>
       <r>    -8.9668     2.4408    14.5798 </r>
       <r>    -8.8761     2.2416    14.7830 </r>
       <r>    -8.7854     2.3160    14.9931 </r>
       <r>    -8.6947     1.8040    15.1567 </r>
       <r>    -8.6040     1.4610    15.2892 </r>
       <r>    -8.5134     2.1575    15.4848 </r>
       <r>    -8.4227     3.0168    15.7584 </r>
       <r>    -8.3320     3.1001    16.0395 </r>
       <r>    -8.2413     3.0604    16.3171 </r>
       <r>    -8.1506     3.4995    16.6344 </r>
       <r>    -8.0599     3.7544    16.9749 </r>
       <r>    -7.9692     3.3579    17.2794 </r>
       <r>    -7.8785     3.0117    17.5526 </r>
       <r>    -7.7879     3.0207    17.8265 </r>
       <r>    -7.6972     3.3775    18.1328 </r>
       <r>    -7.6065     3.0847    18.4125 </r>
       <r>    -7.5158     3.7784    18.7552 </r>
       <r>    -7.4251     4.6010    19.1724 </r>
       <r>    -7.3344     3.6187    19.5006 </r>
       <r>    -7.2437     2.5308    19.7301 </r>
       <r>    -7.1530     2.4384    19.9513 </r>
       <r>    -7.0624     2.5101    20.1789 </r>
       <r>    -6.9717     2.3593    20.3929 </r>
       <r>    -6.8810     2.7655    20.6437 </r>
       <r>    -6.7903     3.7369    20.9825 </r>
       <r>    -6.6996     5.5558    21.4864 </r>
       <r>    -6.6089     5.4749    21.9829 </r>
       <r>    -6.5182     4.9980    22.4361 </r>
       <r>    -6.4275     4.8682    22.8776 </r>
       <r>    -6.3369     4.2451    23.2626 </r>
       <r>    -6.2462     3.2578    23.5580 </r>
       <r>    -6.1555     3.3781    23.8644 </r>
       <r>    -6.0648     3.6042    24.1913 </r>
       <r>    -5.9741     2.9472    24.4585 </r>
       <r>    -5.8834     3.1155    24.7411 </r>
       <r>    -5.7927     2.4168    24.9602 </r>
       <r>    -5.7020     2.1254    25.1530 </r>
       <r>    -5.6114     3.0243    25.4272 </r>
       <r>    -5.5207     3.2236    25.7196 </r>
       <r>    -5.4300     2.9836    25.9902 </r>
       <r>    -5.3393     3.2307    26.2831 </r>
       <r>    -5.2486     3.4574    26.5967 </r>
       <r>    -5.1579     3.1606    26.8833 </r>
       <r>    -5.0672     2.1275    27.0762 </r>
       <r>    -4.9766     2.0564    27.2627 </r>
       <r>    -4.8859     3.5286    27.5827 </r>
       <r>    -4.7952     4.5811    27.9982 </r>
       <r>    -4.7045     3.2784    28.2955 </r>
       <r>    -4.6138     2.6884    28.5393 </r>
       <r>    -4.5231     3.3645    28.8444 </r>
       <r>    -4.4324     3.7369    29.1833 </r>
       <r>    -4.3417     3.2127    29.4747 </r>
       <r>    -4.2511     1.8049    29.6383 </r>
       <r>    -4.1604     1.1702    29.7445 </r>
       <r>    -4.0697     1.0853    29.8429 </r>
       <r>    -3.9790     0.9626    29.9302 </r>
       <r>    -3.8883     0.5803    29.9828 </r>
       <r>    -3.7976     0.1707    29.9983 </r>
       <r>    -3.7069     0.0513    30.0029 </r>
       <r>    -3.6162     0.3068    30.0308 </r>
       <r>    -3.5256     0.8229    30.1054 </r>
       <r>    -3.4349     0.8629    30.1836 </r>
       <r>    -3.3442     1.0291    30.2770 </r>
       <r>    -3.2535     2.4830    30.5021 </r>
       <r>    -3.1628     3.1731    30.7899 </r>
       <r>    -3.0721     2.3217    31.0005 </r>
       <r>    -2.9814     1.5642    31.1423 </r>
       <r>    -2.8907     1.2821    31.2586 </r>
       <r>    -2.8001     1.8141    31.4231 </r>
       <r>    -2.7094     2.0191    31.6062 </r>
       <r>    -2.6187     1.0579    31.7021 </r>
       <r>    -2.5280     0.3684    31.7355 </r>
       <r>    -2.4373     0.4461    31.7760 </r>
       <r>    -2.3466     0.2965    31.8029 </r>
       <r>    -2.2559     0.2736    31.8277 </r>
       <r>    -2.1652     0.8011    31.9003 </r>
       <r>    -2.0746     0.6589    31.9601 </r>
       <r>    -1.9839     0.1280    31.9717 </r>
       <r>    -1.8932     0.0056    31.9722 </r>
       <r>    -1.8025     0.0014    31.9723 </r>
       <r>    -1.7118     0.0348    31.9755 </r>
       <r>    -1.6211     0.2023    31.9938 </r>
       <r>    -1.5304     0.2771    32.0190 </r>
       <r>    -1.4397     0.0902    32.0272 </r>
       <r>    -1.3491     0.0068    32.0278 </r>
       <r>    -1.2584     0.0024    32.0280 </r>
       <r>    -1.1677     0.0738    32.0347 </r>
       <r>    -1.0770     0.5227    32.0821 </r>
       <r>    -0.9863     0.8738    32.1613 </r>
       <r>    -0.8956     0.4583    32.2029 </r>
       <r>    -0.8049     0.4401    32.2428 </r>
       <r>    -0.7142     0.4541    32.2840 </r>
       <r>    -0.6236     0.9733    32.3722 </r>
       <r>    -0.5329     2.9782    32.6423 </r>
       <r>    -0.4422     3.8922    32.9953 </r>
       <r>    -0.3515     2.6722    33.2376 </r>
       <r>    -0.2608     1.7039    33.3922 </r>
       <r>    -0.1701     1.5519    33.5329 </r>
       <r>    -0.0794     1.6005    33.6780 </r>
       <r>     0.0113     1.7499    33.8367 </r>
       <r>     0.1019     1.5842    33.9804 </r>
       <r>     0.1926     1.2048    34.0897 </r>
       <r>     0.2833     1.1661    34.1954 </r>
       <r>     0.3740     0.6318    34.2527 </r>
       <r>     0.4647     0.1166    34.2633 </r>
       <r>     0.5554     0.0101    34.2642 </r>
       <r>     0.6461     0.1033    34.2736 </r>
       <r>     0.7368     0.7410    34.3408 </r>
       <r>     0.8274     1.4926    34.4761 </r>
       <r>     0.9181     1.2534    34.5898 </r>
       <r>     1.0088     1.0987    34.6894 </r>
       <r>     1.0995     1.2433    34.8022 </r>
       <r>     1.1902     1.7097    34.9572 </r>
       <r>     1.2809     2.3611    35.1713 </r>
       <r>     1.3716     2.4391    35.3925 </r>
       <r>     1.4623     2.5301    35.6220 </r>
       <r>     1.5529     2.7262    35.8692 </r>
       <r>     1.6436     1.9155    36.0429 </r>
       <r>     1.7343     2.3238    36.2537 </r>
       <r>     1.8250     3.0028    36.5260 </r>
       <r>     1.9157     3.3023    36.8255 </r>
       <r>     2.0064     3.2190    37.1174 </r>
       <r>     2.0971     2.9297    37.3831 </r>
       <r>     2.1878     2.8205    37.6389 </r>
       <r>     2.2784     3.6057    37.9659 </r>
       <r>     2.3691     3.8967    38.3192 </r>
       <r>     2.4598     3.9805    38.6802 </r>
       <r>     2.5505     3.6929    39.0151 </r>
       <r>     2.6412     3.5722    39.3391 </r>
       <r>     2.7319     4.3279    39.7316 </r>
       <r>     2.8226     4.4330    40.1336 </r>
       <r>     2.9133     3.7630    40.4748 </r>
       <r>     3.0039     3.3522    40.7788 </r>
       <r>     3.0946     3.5674    41.1024 </r>
       <r>     3.1853     3.4792    41.4179 </r>
       <r>     3.2760     4.3310    41.8106 </r>
       <r>     3.3667     4.8606    42.2514 </r>
       <r>     3.4574     3.2619    42.5473 </r>
       <r>     3.5481     3.2870    42.8453 </r>
       <r>     3.6388     3.7593    43.1863 </r>
       <r>     3.7294     3.9122    43.5410 </r>
       <r>     3.8201     3.6104    43.8685 </r>
       <r>     3.9108     3.5329    44.1889 </r>
       <r>     4.0015     3.7274    44.5269 </r>
       <r>     4.0922     4.0045    44.8900 </r>
       <r>     4.1829     3.7071    45.2262 </r>
       <r>     4.2736     3.5173    45.5452 </r>
       <r>     4.3643     3.1683    45.8325 </r>
       <r>     4.4549     3.4043    46.1413 </r>
       <r>     4.5456     4.5634    46.5551 </r>
       <r>     4.6363     3.8089    46.9005 </r>
       <r>     4.7270     2.5514    47.1319 </r>
       <r>     4.8177     3.0808    47.4113 </r>
       <r>     4.9084     3.5457    47.7328 </r>
       <r>     4.9991     1.6691    47.8842 </r>
       <r>     5.0898     0.3685    47.9176 </r>
       <r>     5.1804     0.2877    47.9437 </r>
       <r>     5.2711     0.4337    47.9830 </r>
       <r>     5.3618     0.1711    47.9986 </r>
       <r>     5.4525     0.0156    48.0000 </r>
       <r>     5.5432     0.0003    48.0000 </r>
       <r>     5.6339     0.0000    48.0000 </r>
       <r>     5.7246     0.0000    48.0000 </r>
       <r>     5.8153     0.0000    48.0000 </r>
       <r>     5.9059     0.0000    48.0000 </r>
       <r>     5.9966     0.0000    48.0000 </r>
       <r>     6.0873     0.0000    48.0000 </r>
       <r>     6.1780     0.0000    48.0000 </r>
       <r>     6.2687     0.0000    48.0000 </r>
       <r>     6.3594     0.0000    48.0000 </r>
       <r>     6.4501     0.0000    48.0000 </r>
      </set>
     </set>
    </array>
   </total>
  </dos>
 </calculation>
 <structure name="finalpos" >
  <crystal>
   <varray name="basis" >
    <v>       4.47300000       2.58200000       0.00000000 </v>
    <v>      -4.47300000       2.58200000       0.00000000 </v>
    <v>       0.00000000       0.00000000      15.00000000 </v>
   </varray>
   <i name="volume">    346.47858000 </i>
   <varray name="rec_basis" >
    <v>       0.11178180       0.19364833       0.00000000 </v>
    <v>      -0.11178180       0.19364833       0.00000000 </v>
    <v>       0.00000000       0.00000000       0.06666667 </v>
   </varray>
  </crystal>
  <varray name="positions" >
   <v>       0.33333300       0.66666600       0.25000000 </v>
   <v>       0.66666600       0.33333300       0.25000000 </v>
   <v>       0.16666600       0.33333300       0.25000000 </v>
   <v>       0.33333300       0.16666600       0.25000000 </v>
   <v>       0.16666600       0.83333300       0.25000000 </v>
   <v>       0.83333300       0.16666600       0.25000000 </v>
   <v>       0.66666600       0.83333300       0.25000000 </v>
   <v>       0.83333300       0.66666600       0.25000000 </v>
  </varray>
 </structure>
</modeling>
