nqpoint: 255    
npath: 5      
segment_nqpoint:
- 51
- 51
- 51
- 51
- 51
reciprocal_lattice:
- [   0.11158601,   0.19327265,   0.00000000 ] # a*
- [  -0.11158601,   0.19327265,   0.00000000 ] # b*
- [   0.00000000,   0.00000000,   0.11736784 ] # c*
natom: 8      
lattice:
- [     4.480848434025150,     2.587018851738510,     0.000000000000000 ] # a
- [    -4.480848434025150,     2.587018851738510,     0.000000000000000 ] # b
- [     0.000000000000000,     0.000000000000000,     8.520221399839757 ] # c
points:
- symbol: B  # 1
  coordinates: [  0.333333000000003,  0.666665999999999,  0.250000000000000 ]
  mass: 10.811000
- symbol: B  # 2
  coordinates: [  0.666665999999999,  0.333333000000003,  0.250000000000000 ]
  mass: 10.811000
- symbol: C  # 3
  coordinates: [  0.158691242177568,  0.317383484387676,  0.250000000000000 ]
  mass: 12.010700
- symbol: C  # 4
  coordinates: [  0.317383484387676,  0.158691242177568,  0.250000000000000 ]
  mass: 12.010700
- symbol: C  # 5
  coordinates: [  0.158691242210104,  0.841307757789899,  0.250000000000000 ]
  mass: 12.010700
- symbol: C  # 6
  coordinates: [  0.841307757789899,  0.158691242210104,  0.250000000000000 ]
  mass: 12.010700
- symbol: C  # 7
  coordinates: [  0.682615515612326,  0.841307757822435,  0.250000000000000 ]
  mass: 12.010700
- symbol: C  # 8
  coordinates: [  0.841307757822435,  0.682615515612326,  0.250000000000000 ]
  mass: 12.010700

phonon:
- q-position: [    0.3330000,    0.3330000,    0.0000000 ]
  distance:    0.0000000
  band:
  - # 1
    frequency:    3.6785833598
  - # 2
    frequency:    4.7488059482
  - # 3
    frequency:    4.7576534268
  - # 4
    frequency:   12.6870303257
  - # 5
    frequency:   12.6991338566
  - # 6
    frequency:   15.2482771727
  - # 7
    frequency:   15.5855167056
  - # 8
    frequency:   15.6048341342
  - # 9
    frequency:   21.7126288421
  - # 10
    frequency:   21.7346057662
  - # 11
    frequency:   22.6784013070
  - # 12
    frequency:   22.6856865459
  - # 13
    frequency:   23.6336011713
  - # 14
    frequency:   23.8012931111
  - # 15
    frequency:   26.5583465636
  - # 16
    frequency:   31.8040640784
  - # 17
    frequency:   31.8157699786
  - # 18
    frequency:   39.0250729499
  - # 19
    frequency:   39.5891918741
  - # 20
    frequency:   40.7852525936
  - # 21
    frequency:   41.0632116566
  - # 22
    frequency:   41.0650277380
  - # 23
    frequency:   43.7286626721
  - # 24
    frequency:   43.7316786970

- q-position: [    0.3263400,    0.3263400,    0.0000000 ]
  distance:    0.0025744
  band:
  - # 1
    frequency:    3.6669051785
  - # 2
    frequency:    4.6740231480
  - # 3
    frequency:    4.8472530453
  - # 4
    frequency:   12.5671689210
  - # 5
    frequency:   12.8192337696
  - # 6
    frequency:   15.1478207854
  - # 7
    frequency:   15.4842217380
  - # 8
    frequency:   15.7923071650
  - # 9
    frequency:   21.4781079115
  - # 10
    frequency:   21.9610279385
  - # 11
    frequency:   22.6034959213
  - # 12
    frequency:   22.7469277013
  - # 13
    frequency:   23.6547081586
  - # 14
    frequency:   23.8093411920
  - # 15
    frequency:   26.5450493211
  - # 16
    frequency:   31.6973859384
  - # 17
    frequency:   31.9319816609
  - # 18
    frequency:   39.0216514285
  - # 19
    frequency:   39.5879807593
  - # 20
    frequency:   40.7828382142
  - # 21
    frequency:   41.0454072197
  - # 22
    frequency:   41.0826985331
  - # 23
    frequency:   43.7000072049
  - # 24
    frequency:   43.7627135018

- q-position: [    0.3196800,    0.3196800,    0.0000000 ]
  distance:    0.0051488
  band:
  - # 1
    frequency:    3.6313417339
  - # 2
    frequency:    4.6272247208
  - # 3
    frequency:    4.9385808836
  - # 4
    frequency:   12.4494748051
  - # 5
    frequency:   12.9377192683
  - # 6
    frequency:   14.9143142879
  - # 7
    frequency:   15.5036478144
  - # 8
    frequency:   15.9656423916
  - # 9
    frequency:   21.2204302781
  - # 10
    frequency:   22.1999947094
  - # 11
    frequency:   22.5251081781
  - # 12
    frequency:   22.7851782626
  - # 13
    frequency:   23.7099691656
  - # 14
    frequency:   23.8334837867
  - # 15
    frequency:   26.5068748367
  - # 16
    frequency:   31.6107584758
  - # 17
    frequency:   32.0463456629
  - # 18
    frequency:   39.0121869172
  - # 19
    frequency:   39.5843657111
  - # 20
    frequency:   40.7757512581
  - # 21
    frequency:   41.0281615281
  - # 22
    frequency:   41.0993198914
  - # 23
    frequency:   43.6744369664
  - # 24
    frequency:   43.7953092641

- q-position: [    0.3130200,    0.3130200,    0.0000000 ]
  distance:    0.0077232
  band:
  - # 1
    frequency:    3.5710745391
  - # 2
    frequency:    4.6093675896
  - # 3
    frequency:    5.0316630448
  - # 4
    frequency:   12.3342038172
  - # 5
    frequency:   13.0545156496
  - # 6
    frequency:   14.6481266489
  - # 7
    frequency:   15.5442351642
  - # 8
    frequency:   16.1233673395
  - # 9
    frequency:   20.9460323752
  - # 10
    frequency:   22.4432448672
  - # 11
    frequency:   22.4500425832
  - # 12
    frequency:   22.7997153351
  - # 13
    frequency:   23.7941726700
  - # 14
    frequency:   23.8742353182
  - # 15
    frequency:   26.4433465695
  - # 16
    frequency:   31.5450397815
  - # 17
    frequency:   32.1587773347
  - # 18
    frequency:   38.9969645028
  - # 19
    frequency:   39.5780244780
  - # 20
    frequency:   40.7636703875
  - # 21
    frequency:   41.0113173752
  - # 22
    frequency:   41.1146149560
  - # 23
    frequency:   43.6524189067
  - # 24
    frequency:   43.8294512732

- q-position: [    0.3063600,    0.3063600,    0.0000000 ]
  distance:    0.0102976
  band:
  - # 1
    frequency:    3.4892890488
  - # 2
    frequency:    4.6173917944
  - # 3
    frequency:    5.1265220403
  - # 4
    frequency:   12.2216225003
  - # 5
    frequency:   13.1695540303
  - # 6
    frequency:   14.3721838285
  - # 7
    frequency:   15.5838912793
  - # 8
    frequency:   16.2639988208
  - # 9
    frequency:   20.6601534133
  - # 10
    frequency:   22.3579232012
  - # 11
    frequency:   22.7096005640
  - # 12
    frequency:   22.7920248032
  - # 13
    frequency:   23.9033282170
  - # 14
    frequency:   23.9299400230
  - # 15
    frequency:   26.3547773702
  - # 16
    frequency:   31.5004044853
  - # 17
    frequency:   32.2691970931
  - # 18
    frequency:   38.9763026249
  - # 19
    frequency:   39.5685969359
  - # 20
    frequency:   40.7463819747
  - # 21
    frequency:   40.9946880785
  - # 22
    frequency:   41.1282452855
  - # 23
    frequency:   43.6344131447
  - # 24
    frequency:   43.8651163607

- q-position: [    0.2997000,    0.2997000,    0.0000000 ]
  distance:    0.0128720
  band:
  - # 1
    frequency:    3.3913347006
  - # 2
    frequency:    4.6460600088
  - # 3
    frequency:    5.2231704340
  - # 4
    frequency:   12.1120120588
  - # 5
    frequency:   13.2827709258
  - # 6
    frequency:   14.0913642616
  - # 7
    frequency:   15.6185704982
  - # 8
    frequency:   16.3859453010
  - # 9
    frequency:   20.3671537423
  - # 10
    frequency:   22.2691713657
  - # 11
    frequency:   22.7650859380
  - # 12
    frequency:   22.9769360982
  - # 13
    frequency:   23.9974853443
  - # 14
    frequency:   24.0344395856
  - # 15
    frequency:   26.2423567332
  - # 16
    frequency:   31.4763345488
  - # 17
    frequency:   32.3775321264
  - # 18
    frequency:   38.9505440032
  - # 19
    frequency:   39.5556936908
  - # 20
    frequency:   40.7237694556
  - # 21
    frequency:   40.9780657748
  - # 22
    frequency:   41.1398274568
  - # 23
    frequency:   43.6208623302
  - # 24
    frequency:   43.9022727429

- q-position: [    0.2930400,    0.2930400,    0.0000000 ]
  distance:    0.0154464
  band:
  - # 1
    frequency:    3.2825242703
  - # 2
    frequency:    4.6901575423
  - # 3
    frequency:    5.3216041094
  - # 4
    frequency:   12.0056723240
  - # 5
    frequency:   13.3941079174
  - # 6
    frequency:   13.8072900267
  - # 7
    frequency:   15.6474621287
  - # 8
    frequency:   16.4873453137
  - # 9
    frequency:   20.0710024905
  - # 10
    frequency:   22.1770290403
  - # 11
    frequency:   22.7222745956
  - # 12
    frequency:   23.2500188420
  - # 13
    frequency:   24.0733966793
  - # 14
    frequency:   24.1851731960
  - # 15
    frequency:   26.1082270182
  - # 16
    frequency:   31.4716991002
  - # 17
    frequency:   32.4837178067
  - # 18
    frequency:   38.9200464819
  - # 19
    frequency:   39.5389075800
  - # 20
    frequency:   40.6957946263
  - # 21
    frequency:   40.9612299417
  - # 22
    frequency:   41.1489572320
  - # 23
    frequency:   43.6121789344
  - # 24
    frequency:   43.9408799670

- q-position: [    0.2863800,    0.2863800,    0.0000000 ]
  distance:    0.0180207
  band:
  - # 1
    frequency:    3.1670881706
  - # 2
    frequency:    4.7455372190
  - # 3
    frequency:    5.4217952062
  - # 4
    frequency:   11.9029257894
  - # 5
    frequency:   13.5035113742
  - # 6
    frequency:   13.5206893144
  - # 7
    frequency:   15.6706122425
  - # 8
    frequency:   16.5658220206
  - # 9
    frequency:   19.7757827827
  - # 10
    frequency:   22.0815478929
  - # 11
    frequency:   22.6666030195
  - # 12
    frequency:   23.5261956465
  - # 13
    frequency:   24.1545954454
  - # 14
    frequency:   24.3535934550
  - # 15
    frequency:   25.9556779793
  - # 16
    frequency:   31.4848998884
  - # 17
    frequency:   32.5876987921
  - # 18
    frequency:   38.8851744139
  - # 19
    frequency:   39.5178279834
  - # 20
    frequency:   40.6624748800
  - # 21
    frequency:   40.9439555069
  - # 22
    frequency:   41.1552368976
  - # 23
    frequency:   43.6087309040
  - # 24
    frequency:   43.9808889560

- q-position: [    0.2797200,    0.2797200,    0.0000000 ]
  distance:    0.0205951
  band:
  - # 1
    frequency:    3.0480854490
  - # 2
    frequency:    4.8092073999
  - # 3
    frequency:    5.5236847917
  - # 4
    frequency:   11.8041217611
  - # 5
    frequency:   13.2319602564
  - # 6
    frequency:   13.6109322061
  - # 7
    frequency:   15.6883489544
  - # 8
    frequency:   16.6181437844
  - # 9
    frequency:   19.4862002584
  - # 10
    frequency:   21.9827920522
  - # 11
    frequency:   22.6004470521
  - # 12
    frequency:   23.8013781355
  - # 13
    frequency:   24.2386696548
  - # 14
    frequency:   24.5379895409
  - # 15
    frequency:   25.7897961512
  - # 16
    frequency:   31.5140445916
  - # 17
    frequency:   32.6894298214
  - # 18
    frequency:   38.8462910415
  - # 19
    frequency:   39.4920576054
  - # 20
    frequency:   40.6238594192
  - # 21
    frequency:   40.9260200694
  - # 22
    frequency:   41.1583021076
  - # 23
    frequency:   43.6108265854
  - # 24
    frequency:   44.0222421463

- q-position: [    0.2730600,    0.2730600,    0.0000000 ]
  distance:    0.0231695
  band:
  - # 1
    frequency:    2.9276591284
  - # 2
    frequency:    4.8790755253
  - # 3
    frequency:    5.6271753438
  - # 4
    frequency:   11.7096406402
  - # 5
    frequency:   12.9413511357
  - # 6
    frequency:   13.7163256278
  - # 7
    frequency:   15.7010955471
  - # 8
    frequency:   16.6398290744
  - # 9
    frequency:   19.2080748627
  - # 10
    frequency:   21.8808385597
  - # 11
    frequency:   22.5255680453
  - # 12
    frequency:   24.0677971522
  - # 13
    frequency:   24.3238497001
  - # 14
    frequency:   24.7367753947
  - # 15
    frequency:   25.6195516447
  - # 16
    frequency:   31.5571118002
  - # 17
    frequency:   32.7888762061
  - # 18
    frequency:   38.8037521397
  - # 19
    frequency:   39.4612310211
  - # 20
    frequency:   40.5800066012
  - # 21
    frequency:   40.9072099563
  - # 22
    frequency:   41.1578453498
  - # 23
    frequency:   43.6187002743
  - # 24
    frequency:   44.0648737093

- q-position: [    0.2664000,    0.2664000,    0.0000000 ]
  distance:    0.0257439
  band:
  - # 1
    frequency:    2.8073118216
  - # 2
    frequency:    4.9536712641
  - # 3
    frequency:    5.7321231577
  - # 4
    frequency:   11.6198983171
  - # 5
    frequency:   12.6490308589
  - # 6
    frequency:   13.8196509157
  - # 7
    frequency:   15.7092967328
  - # 8
    frequency:   16.6248794281
  - # 9
    frequency:   18.9486557721
  - # 10
    frequency:   21.7757778062
  - # 11
    frequency:   22.4432370462
  - # 12
    frequency:   24.3071290486
  - # 13
    frequency:   24.4088817825
  - # 14
    frequency:   24.9484393876
  - # 15
    frequency:   25.4645418628
  - # 16
    frequency:   31.6120840410
  - # 17
    frequency:   32.8860140413
  - # 18
    frequency:   38.7579010064
  - # 19
    frequency:   39.4250338517
  - # 20
    frequency:   40.5309641351
  - # 21
    frequency:   40.8873250177
  - # 22
    frequency:   41.1536337235
  - # 23
    frequency:   43.6325000345
  - # 24
    frequency:   44.1087098474

- q-position: [    0.2597400,    0.2597400,    0.0000000 ]
  distance:    0.0283183
  band:
  - # 1
    frequency:    2.6881132623
  - # 2
    frequency:    5.0319376524
  - # 3
    frequency:    5.8383308296
  - # 4
    frequency:   11.5353506021
  - # 5
    frequency:   12.3551209745
  - # 6
    frequency:   13.9208711460
  - # 7
    frequency:   15.7133859183
  - # 8
    frequency:   16.5661122321
  - # 9
    frequency:   18.7163068655
  - # 10
    frequency:   21.6677139559
  - # 11
    frequency:   22.3543645752
  - # 12
    frequency:   24.4718479286
  - # 13
    frequency:   24.4928956755
  - # 14
    frequency:   25.1715245178
  - # 15
    frequency:   25.3735475729
  - # 16
    frequency:   31.6770401522
  - # 17
    frequency:   32.9808301579
  - # 18
    frequency:   38.7090647369
  - # 19
    frequency:   39.3832210348
  - # 20
    frequency:   40.4767537190
  - # 21
    frequency:   40.8661822084
  - # 22
    frequency:   41.1455192761
  - # 23
    frequency:   43.6522793981
  - # 24
    frequency:   44.1536691545

- q-position: [    0.2530800,    0.2530800,    0.0000000 ]
  distance:    0.0308927
  band:
  - # 1
    frequency:    2.5708397113
  - # 2
    frequency:    5.1130902842
  - # 3
    frequency:    5.9455400433
  - # 4
    frequency:   11.4564975347
  - # 5
    frequency:   12.0597120660
  - # 6
    frequency:   14.0199529030
  - # 7
    frequency:   15.7137698873
  - # 8
    frequency:   16.4567685774
  - # 9
    frequency:   18.5189011155
  - # 10
    frequency:   21.5567653590
  - # 11
    frequency:   22.2596051044
  - # 12
    frequency:   24.4853255837
  - # 13
    frequency:   24.5752977309
  - # 14
    frequency:   25.4046255200
  - # 15
    frequency:   25.4243778634
  - # 16
    frequency:   31.7502095153
  - # 17
    frequency:   33.0733218467
  - # 18
    frequency:   38.6575516255
  - # 19
    frequency:   39.3356324336
  - # 20
    frequency:   40.4173615508
  - # 21
    frequency:   40.8436180998
  - # 22
    frequency:   41.1334409235
  - # 23
    frequency:   43.6779941497
  - # 24
    frequency:   44.1996630303

- q-position: [    0.2464200,    0.2464200,    0.0000000 ]
  distance:    0.0334671
  band:
  - # 1
    frequency:    2.4560639675
  - # 2
    frequency:    5.1965258550
  - # 3
    frequency:    6.0534249812
  - # 4
    frequency:   11.3838873041
  - # 5
    frequency:   11.7628730287
  - # 6
    frequency:   14.1168659497
  - # 7
    frequency:   15.7108217614
  - # 8
    frequency:   16.2933686800
  - # 9
    frequency:   18.3609603861
  - # 10
    frequency:   21.4430649581
  - # 11
    frequency:   22.1594333953
  - # 12
    frequency:   24.3525739775
  - # 13
    frequency:   24.6556919873
  - # 14
    frequency:   25.6131016107
  - # 15
    frequency:   25.6463939021
  - # 16
    frequency:   31.8299962966
  - # 17
    frequency:   33.1634963844
  - # 18
    frequency:   38.6036494805
  - # 19
    frequency:   39.2822041139
  - # 20
    frequency:   40.3527357009
  - # 21
    frequency:   40.8194905197
  - # 22
    frequency:   41.1174180666
  - # 23
    frequency:   43.7095046814
  - # 24
    frequency:   44.2465961397

- q-position: [    0.2397600,    0.2397600,    0.0000000 ]
  distance:    0.0360415
  band:
  - # 1
    frequency:    2.3442129424
  - # 2
    frequency:    5.2817631331
  - # 3
    frequency:    6.1615868198
  - # 4
    frequency:   11.3181193617
  - # 5
    frequency:   11.4646567968
  - # 6
    frequency:   14.2115828565
  - # 7
    frequency:   15.7048781828
  - # 8
    frequency:   16.0779331695
  - # 9
    frequency:   18.2414278187
  - # 10
    frequency:   21.3267606870
  - # 11
    frequency:   22.0541981363
  - # 12
    frequency:   24.1458048815
  - # 13
    frequency:   24.7338239665
  - # 14
    frequency:   25.8684819694
  - # 15
    frequency:   25.8955453988
  - # 16
    frequency:   31.9149830740
  - # 17
    frequency:   33.2513703942
  - # 18
    frequency:   38.5476246221
  - # 19
    frequency:   39.2229740555
  - # 20
    frequency:   40.2827905165
  - # 21
    frequency:   40.7936795268
  - # 22
    frequency:   41.0975372461
  - # 23
    frequency:   43.7465835515
  - # 24
    frequency:   44.2943669066

- q-position: [    0.2331000,    0.2331000,    0.0000000 ]
  distance:    0.0386159
  band:
  - # 1
    frequency:    2.2356046274
  - # 2
    frequency:    5.3684045689
  - # 3
    frequency:    6.2695499446
  - # 4
    frequency:   11.1651041652
  - # 5
    frequency:   11.2598461211
  - # 6
    frequency:   14.3040785831
  - # 7
    frequency:   15.6962387160
  - # 8
    frequency:   15.8173305105
  - # 9
    frequency:   18.1543155504
  - # 10
    frequency:   21.2080158642
  - # 11
    frequency:   21.9441591503
  - # 12
    frequency:   23.9054853452
  - # 13
    frequency:   24.8095409088
  - # 14
    frequency:   26.1508667903
  - # 15
    frequency:   26.1509274169
  - # 16
    frequency:   32.0039219985
  - # 17
    frequency:   33.3369690693
  - # 18
    frequency:   38.4897213434
  - # 19
    frequency:   39.1580818113
  - # 20
    frequency:   40.2074171729
  - # 21
    frequency:   40.7660879226
  - # 22
    frequency:   41.0739342350
  - # 23
    frequency:   43.7889271465
  - # 24
    frequency:   44.3428680358

- q-position: [    0.2264400,    0.2264400,    0.0000000 ]
  distance:    0.0411903
  band:
  - # 1
    frequency:    2.1304720629
  - # 2
    frequency:    5.4561109803
  - # 3
    frequency:    6.3767607276
  - # 4
    frequency:   10.8642465202
  - # 5
    frequency:   11.2097724141
  - # 6
    frequency:   14.3943300151
  - # 7
    frequency:   15.5203818379
  - # 8
    frequency:   15.6851663962
  - # 9
    frequency:   18.0915978284
  - # 10
    frequency:   21.0870095803
  - # 11
    frequency:   21.8295132175
  - # 12
    frequency:   23.6475012971
  - # 13
    frequency:   24.8827634327
  - # 14
    frequency:   26.4112206741
  - # 15
    frequency:   26.4453412373
  - # 16
    frequency:   32.0957195660
  - # 17
    frequency:   33.4203252852
  - # 18
    frequency:   38.4301616321
  - # 19
    frequency:   39.0877624826
  - # 20
    frequency:   40.1264984848
  - # 21
    frequency:   40.7366414708
  - # 22
    frequency:   41.0467745756
  - # 23
    frequency:   43.8361698877
  - # 24
    frequency:   44.3919870557

- q-position: [    0.2197800,    0.2197800,    0.0000000 ]
  distance:    0.0437647
  band:
  - # 1
    frequency:    2.0289790897
  - # 2
    frequency:    5.5445845878
  - # 3
    frequency:    6.4825899308
  - # 4
    frequency:   10.5621079128
  - # 5
    frequency:   11.1686516468
  - # 6
    frequency:   14.4823154551
  - # 7
    frequency:   15.1952740171
  - # 8
    frequency:   15.6718888228
  - # 9
    frequency:   18.0457990285
  - # 10
    frequency:   20.9639370758
  - # 11
    frequency:   21.7104121277
  - # 12
    frequency:   23.3788858489
  - # 13
    frequency:   24.9534650318
  - # 14
    frequency:   26.6755477967
  - # 15
    frequency:   26.7454089783
  - # 16
    frequency:   32.1894190602
  - # 17
    frequency:   33.5014786232
  - # 18
    frequency:   38.3691449850
  - # 19
    frequency:   39.0123361345
  - # 20
    frequency:   40.0399254661
  - # 21
    frequency:   40.7052889693
  - # 22
    frequency:   41.0162355403
  - # 23
    frequency:   43.8878993395
  - # 24
    frequency:   44.4416068743

- q-position: [    0.2131200,    0.2131200,    0.0000000 ]
  distance:    0.0463391
  band:
  - # 1
    frequency:    1.9312308921
  - # 2
    frequency:    5.6335574541
  - # 3
    frequency:    6.5863399706
  - # 4
    frequency:   10.2587067143
  - # 5
    frequency:   11.1372774101
  - # 6
    frequency:   14.5680140732
  - # 7
    frequency:   14.8484658161
  - # 8
    frequency:   15.6565994512
  - # 9
    frequency:   18.0110914229
  - # 10
    frequency:   20.8390101090
  - # 11
    frequency:   21.5869754355
  - # 12
    frequency:   23.1034164708
  - # 13
    frequency:   25.0216569644
  - # 14
    frequency:   26.9428671151
  - # 15
    frequency:   27.0480173466
  - # 16
    frequency:   32.2841831362
  - # 17
    frequency:   33.5804743197
  - # 18
    frequency:   38.3068481768
  - # 19
    frequency:   38.9321942327
  - # 20
    frequency:   39.9476130774
  - # 21
    frequency:   40.6720022798
  - # 22
    frequency:   40.9824918826
  - # 23
    frequency:   43.9436707888
  - # 24
    frequency:   44.4916063469

- q-position: [    0.2064600,    0.2064600,    0.0000000 ]
  distance:    0.0489134
  band:
  - # 1
    frequency:    1.8372812506
  - # 2
    frequency:    5.7227834751
  - # 3
    frequency:    6.6872583239
  - # 4
    frequency:    9.9540569959
  - # 5
    frequency:   11.1164692521
  - # 6
    frequency:   14.4846621810
  - # 7
    frequency:   14.6514053233
  - # 8
    frequency:   15.6394588886
  - # 9
    frequency:   17.9833271637
  - # 10
    frequency:   20.7124573048
  - # 11
    frequency:   21.4592995843
  - # 12
    frequency:   22.8234978666
  - # 13
    frequency:   25.0873768979
  - # 14
    frequency:   27.2122740224
  - # 15
    frequency:   27.3513864036
  - # 16
    frequency:   32.3792779009
  - # 17
    frequency:   33.6573621537
  - # 18
    frequency:   38.2434248771
  - # 19
    frequency:   38.8477847779
  - # 20
    frequency:   39.8495131097
  - # 21
    frequency:   40.6367763938
  - # 22
    frequency:   40.9457067495
  - # 23
    frequency:   44.0030202710
  - # 24
    frequency:   44.5418608478

- q-position: [    0.1998000,    0.1998000,    0.0000000 ]
  distance:    0.0514878
  band:
  - # 1
    frequency:    1.7471377604
  - # 2
    frequency:    5.8120327416
  - # 3
    frequency:    6.7845581483
  - # 4
    frequency:    9.6481697151
  - # 5
    frequency:   11.1070515179
  - # 6
    frequency:   14.1071778927
  - # 7
    frequency:   14.7324683343
  - # 8
    frequency:   15.6205960933
  - # 9
    frequency:   17.9596825775
  - # 10
    frequency:   20.5845244801
  - # 11
    frequency:   21.3274645150
  - # 12
    frequency:   22.5408769809
  - # 13
    frequency:   25.1506802198
  - # 14
    frequency:   27.4829372467
  - # 15
    frequency:   27.6543679974
  - # 16
    frequency:   32.4740591294
  - # 17
    frequency:   33.7321952779
  - # 18
    frequency:   38.1790050403
  - # 19
    frequency:   38.7595975993
  - # 20
    frequency:   39.7456230288
  - # 21
    frequency:   40.5996295804
  - # 22
    frequency:   40.9060280317
  - # 23
    frequency:   44.0654754675
  - # 24
    frequency:   44.5922428459

- q-position: [    0.1931400,    0.1931400,    0.0000000 ]
  distance:    0.0540622
  band:
  - # 1
    frequency:    1.6607658518
  - # 2
    frequency:    5.9010875062
  - # 3
    frequency:    6.8774465867
  - # 4
    frequency:    9.3410537603
  - # 5
    frequency:   11.1098247613
  - # 6
    frequency:   13.7183294055
  - # 7
    frequency:   14.8111812865
  - # 8
    frequency:   15.6001094420
  - # 9
    frequency:   17.9382753629
  - # 10
    frequency:   20.4554749335
  - # 11
    frequency:   21.1915385160
  - # 12
    frequency:   22.2569525468
  - # 13
    frequency:   25.2116332856
  - # 14
    frequency:   27.7540948987
  - # 15
    frequency:   27.9561477790
  - # 16
    frequency:   32.5679608258
  - # 17
    frequency:   33.8050289937
  - # 18
    frequency:   38.1136940196
  - # 19
    frequency:   38.6681508644
  - # 20
    frequency:   39.6359905357
  - # 21
    frequency:   40.5606036407
  - # 22
    frequency:   40.8635895148
  - # 23
    frequency:   44.1305642969
  - # 24
    frequency:   44.6426224786

- q-position: [    0.1864800,    0.1864800,    0.0000000 ]
  distance:    0.0566366
  band:
  - # 1
    frequency:    1.5780921884
  - # 2
    frequency:    5.9897392487
  - # 3
    frequency:    6.9651601580
  - # 4
    frequency:    9.0327168861
  - # 5
    frequency:   11.1255303024
  - # 6
    frequency:   13.3197439337
  - # 7
    frequency:   14.8875207900
  - # 8
    frequency:   15.5780676795
  - # 9
    frequency:   17.9178650937
  - # 10
    frequency:   20.3255896874
  - # 11
    frequency:   21.0515818247
  - # 12
    frequency:   21.9729256383
  - # 13
    frequency:   25.2703081143
  - # 14
    frequency:   28.0250500665
  - # 15
    frequency:   28.2561042892
  - # 16
    frequency:   32.6604861090
  - # 17
    frequency:   33.8759194676
  - # 18
    frequency:   38.0475713890
  - # 19
    frequency:   38.5739794148
  - # 20
    frequency:   39.5207143585
  - # 21
    frequency:   40.5197642644
  - # 22
    frequency:   40.8185156056
  - # 23
    frequency:   44.1978213123
  - # 24
    frequency:   44.6928681240

- q-position: [    0.1798200,    0.1798200,    0.0000000 ]
  distance:    0.0592110
  band:
  - # 1
    frequency:    1.4990078409
  - # 2
    frequency:    6.0777864995
  - # 3
    frequency:    7.0470051272
  - # 4
    frequency:    8.7231665559
  - # 5
    frequency:   11.1548100120
  - # 6
    frequency:   12.9125786296
  - # 7
    frequency:   14.9614612813
  - # 8
    frequency:   15.5545108065
  - # 9
    frequency:   17.8976437431
  - # 10
    frequency:   20.1951676650
  - # 11
    frequency:   20.9076493392
  - # 12
    frequency:   21.6898805768
  - # 13
    frequency:   25.3267781977
  - # 14
    frequency:   28.2951662558
  - # 15
    frequency:   28.5537357915
  - # 16
    frequency:   32.7512002853
  - # 17
    frequency:   33.9449223819
  - # 18
    frequency:   37.9806894830
  - # 19
    frequency:   38.4776251479
  - # 20
    frequency:   39.3999422313
  - # 21
    frequency:   40.4772014701
  - # 22
    frequency:   40.7709281988
  - # 23
    frequency:   44.2667921921
  - # 24
    frequency:   44.7428469675

- q-position: [    0.1731600,    0.1731600,    0.0000000 ]
  distance:    0.0617854
  band:
  - # 1
    frequency:    1.4233715087
  - # 2
    frequency:    6.1650331895
  - # 3
    frequency:    7.1223990755
  - # 4
    frequency:    8.4124107055
  - # 5
    frequency:   11.1981650806
  - # 6
    frequency:   12.4976701277
  - # 7
    frequency:   15.0329744583
  - # 8
    frequency:   15.5294510059
  - # 9
    frequency:   17.8770956045
  - # 10
    frequency:   20.0645257820
  - # 11
    frequency:   20.7597926865
  - # 12
    frequency:   21.4088321639
  - # 13
    frequency:   25.3811151919
  - # 14
    frequency:   28.5638628834
  - # 15
    frequency:   28.8486188892
  - # 16
    frequency:   32.8397259367
  - # 17
    frequency:   34.0120915092
  - # 18
    frequency:   37.9130716973
  - # 19
    frequency:   38.3796293812
  - # 20
    frequency:   39.2738671434
  - # 21
    frequency:   40.4330300846
  - # 22
    frequency:   40.7209543362
  - # 23
    frequency:   44.3370366875
  - # 24
    frequency:   44.7924255611

- q-position: [    0.1665000,    0.1665000,    0.0000000 ]
  distance:    0.0643598
  band:
  - # 1
    frequency:    1.3510129679
  - # 2
    frequency:    6.2512873621
  - # 3
    frequency:    7.1909085490
  - # 4
    frequency:    8.1004584303
  - # 5
    frequency:   11.2559188720
  - # 6
    frequency:   12.0756356891
  - # 7
    frequency:   15.1020287793
  - # 8
    frequency:   15.5028737542
  - # 9
    frequency:   17.8559051068
  - # 10
    frequency:   19.9339989267
  - # 11
    frequency:   20.6080618260
  - # 12
    frequency:   21.1307550549
  - # 13
    frequency:   25.4333863295
  - # 14
    frequency:   28.8306109475
  - # 15
    frequency:   29.1403830582
  - # 16
    frequency:   32.9257398576
  - # 17
    frequency:   34.0774772016
  - # 18
    frequency:   37.8447106297
  - # 19
    frequency:   38.2805269746
  - # 20
    frequency:   39.1427228390
  - # 21
    frequency:   40.3873901994
  - # 22
    frequency:   40.6687335870
  - # 23
    frequency:   44.4081303930
  - # 24
    frequency:   44.8414703744

- q-position: [    0.1598400,    0.1598400,    0.0000000 ]
  distance:    0.0669342
  band:
  - # 1
    frequency:    1.2817368455
  - # 2
    frequency:    6.3363601363
  - # 3
    frequency:    7.2522772558
  - # 4
    frequency:    7.7873206000
  - # 5
    frequency:   11.3281893824
  - # 6
    frequency:   11.6469419970
  - # 7
    frequency:   15.1685890538
  - # 8
    frequency:   15.4747393211
  - # 9
    frequency:   17.8338962724
  - # 10
    frequency:   19.8039397968
  - # 11
    frequency:   20.4525063177
  - # 12
    frequency:   20.8566027107
  - # 13
    frequency:   25.4836524329
  - # 14
    frequency:   29.0949289284
  - # 15
    frequency:   29.4286934934
  - # 16
    frequency:   33.0089717098
  - # 17
    frequency:   34.1411247802
  - # 18
    frequency:   37.7755661751
  - # 19
    frequency:   38.1808419113
  - # 20
    frequency:   39.0067793206
  - # 21
    frequency:   40.3404475232
  - # 22
    frequency:   40.6144244261
  - # 23
    frequency:   44.4796656747
  - # 24
    frequency:   44.8898483336

- q-position: [    0.1531800,    0.1531800,    0.0000000 ]
  distance:    0.0695086
  band:
  - # 1
    frequency:    1.2153267517
  - # 2
    frequency:    6.4200648411
  - # 3
    frequency:    7.3064402221
  - # 4
    frequency:    7.4730103991
  - # 5
    frequency:   11.2119525380
  - # 6
    frequency:   11.4148758780
  - # 7
    frequency:   15.2326161562
  - # 8