  72  72   0   0
  0.2469169E+02  0.1552211E-08  0.1552211E-08  0.8520222E-09  0.5000000E-15
  1.000000000000000E-004
  CAR 
 BC3                                     
      5.96417826    -19.70720821  301     -2.14851833      1.00000000
    -19.707  0.0000E+00  0.0000E+00
    -19.622  0.0000E+00  0.0000E+00
    -19.536  0.0000E+00  0.0000E+00
    -19.450  0.0000E+00  0.0000E+00
    -19.365  0.0000E+00  0.0000E+00
    -19.279  0.0000E+00  0.0000E+00
    -19.194  0.0000E+00  0.0000E+00
    -19.108  0.7298E-15  0.6245E-16
    -19.023  0.9172E-11  0.7849E-12
    -18.937  0.2374E-07  0.2032E-08
    -18.851  0.1554E-04  0.1332E-05
    -18.766  0.2642E-02  0.2275E-03
    -18.680  0.1218E+00  0.1065E-01
    -18.595  0.1646E+01  0.1515E+00
    -18.509  0.7504E+01  0.7936E+00
    -18.424  0.1470E+02  0.2052E+01
    -18.338  0.1815E+02  0.3605E+01
    -18.252  0.1991E+02  0.5308E+01
    -18.167  0.2249E+02  0.7233E+01
    -18.081  0.2767E+02  0.9601E+01
    -17.996  0.3671E+02  0.1274E+02
    -17.910  0.3746E+02  0.1595E+02
    -17.825  0.1954E+02  0.1762E+02
    -17.739  0.4137E+01  0.1797E+02
    -17.653  0.3038E+00  0.1800E+02
    -17.568  0.6759E-02  0.1800E+02
    -17.482  0.4181E-04  0.1800E+02
    -17.397  0.6853E-07  0.1800E+02
    -17.311  0.2881E-10  0.1800E+02
    -17.226  0.2595E-14  0.1800E+02
    -17.140  0.0000E+00  0.1800E+02
    -17.054  0.0000E+00  0.1800E+02
    -16.969  0.0000E+00  0.1800E+02
    -16.883  0.0000E+00  0.1800E+02
    -16.798  0.2367E-12  0.1800E+02
    -16.712  0.1114E-08  0.1800E+02
    -16.627  0.1284E-05  0.1800E+02
    -16.541  0.3784E-03  0.1800E+02
    -16.455  0.3048E-01  0.1800E+02
    -16.370  0.7328E+00  0.1807E+02
    -16.284  0.5778E+01  0.1856E+02
    -16.199  0.1702E+02  0.2002E+02
    -16.113  0.2606E+02  0.2225E+02
    -16.028  0.2975E+02  0.2479E+02
    -15.942  0.2409E+02  0.2685E+02
    -15.857  0.1854E+02  0.2844E+02
    -15.771  0.1553E+02  0.2977E+02
    -15.685  0.1839E+02  0.3134E+02
    -15.600  0.1783E+02  0.3287E+02
    -15.514  0.1668E+02  0.3430E+02
    -15.429  0.1975E+02  0.3599E+02
    -15.343  0.2246E+02  0.3791E+02
    -15.258  0.2393E+02  0.3996E+02
    -15.172  0.2683E+02  0.4225E+02
    -15.086  0.3300E+02  0.4508E+02
    -15.001  0.3007E+02  0.4765E+02
    -14.915  0.2289E+02  0.4961E+02
    -14.830  0.1800E+02  0.5115E+02
    -14.744  0.1640E+02  0.5255E+02
    -14.659  0.1152E+02  0.5354E+02
    -14.573  0.4544E+01  0.5393E+02
    -14.487  0.8133E+00  0.5400E+02
    -14.402  0.4951E-01  0.5400E+02
    -14.316  0.8805E-03  0.5400E+02
    -14.231  0.4232E-05  0.5400E+02
    -14.145  0.5211E-08  0.5400E+02
    -14.060  0.1584E-11  0.5400E+02
    -13.974  0.0000E+00  0.5400E+02
    -13.888  0.0000E+00  0.5400E+02
    -13.803  0.0000E+00  0.5400E+02
    -13.717  0.0000E+00  0.5400E+02
    -13.632  0.0000E+00  0.5400E+02
    -13.546  0.0000E+00  0.5400E+02
    -13.461  0.0000E+00  0.5400E+02
    -13.375  0.1606E-12  0.5400E+02
    -13.289  0.8297E-09  0.5400E+02
    -13.204  0.1047E-05  0.5400E+02
    -13.118  0.3307E-03  0.5400E+02
    -13.033  0.2695E-01  0.5400E+02
    -12.947  0.5934E+00  0.5405E+02
    -12.862  0.3901E+01  0.5439E+02
    -12.776  0.1034E+02  0.5527E+02
    -12.690  0.1863E+02  0.5687E+02
    -12.605  0.2405E+02  0.5892E+02
    -12.519  0.2176E+02  0.6079E+02
    -12.434  0.2257E+02  0.6272E+02
    -12.348  0.3272E+02  0.6552E+02
    -12.263  0.3485E+02  0.6850E+02
    -12.177  0.1782E+02  0.7002E+02
    -12.091  0.8782E+01  0.7078E+02
    -12.006  0.1062E+02  0.7168E+02
    -11.920  0.1503E+02  0.7297E+02
    -11.835  0.1778E+02  0.7449E+02
    -11.749  0.1323E+02  0.7562E+02
    -11.664  0.7184E+01  0.7624E+02
    -11.578  0.6152E+01  0.7676E+02
    -11.492  0.1415E+02  0.7798E+02
    -11.407  0.2234E+02  0.7989E+02
    -11.321  0.1622E+02  0.8128E+02
    -11.236  0.1117E+02  0.8223E+02
    -11.150  0.1432E+02  0.8346E+02
    -11.065  0.2092E+02  0.8525E+02
    -10.979  0.1960E+02  0.8692E+02
    -10.893  0.1167E+02  0.8792E+02
    -10.808  0.1022E+02  0.8880E+02
    -10.722  0.1454E+02  0.9004E+02
    -10.637  0.1613E+02  0.9142E+02
    -10.551  0.7554E+01  0.9207E+02
    -10.466  0.3190E+01  0.9234E+02
    -10.380  0.4794E+01  0.9275E+02
    -10.294  0.8411E+01  0.9347E+02
    -10.209  0.6687E+01  0.9404E+02
    -10.123  0.4630E+01  0.9444E+02
    -10.038  0.1968E+01  0.9461E+02
     -9.952  0.6662E+00  0.9467E+02
     -9.867  0.2009E+01  0.9484E+02
     -9.781  0.9040E+01  0.9561E+02
     -9.695  0.1602E+02  0.9698E+02
     -9.610  0.1024E+02  0.9786E+02
     -9.524  0.8081E+01  0.9855E+02
     -9.439  0.1066E+02  0.9946E+02
     -9.353  0.1353E+02  0.1006E+03
     -9.268  0.1109E+02  0.1016E+03
     -9.182  0.1054E+02  0.1025E+03
     -9.096  0.2108E+02  0.1043E+03
     -9.011  0.2583E+02  0.1065E+03
     -8.925  0.2519E+02  0.1086E+03
     -8.840  0.1853E+02  0.1102E+03
     -8.754  0.1344E+02  0.1114E+03
     -8.669  0.9666E+01  0.1122E+03
     -8.583  0.5559E+01  0.1127E+03
     -8.497  0.1147E+02  0.1137E+03
     -8.412  0.3120E+02  0.1163E+03
     -8.326  0.4030E+02  0.1198E+03
     -8.241  0.2624E+02  0.1220E+03
     -8.155  0.9272E+01  0.1228E+03
     -8.070  0.7745E+01  0.1235E+03
     -7.984  0.1644E+02  0.1249E+03
     -7.898  0.2115E+02  0.1267E+03
     -7.813  0.1622E+02  0.1281E+03
     -7.727  0.1588E+02  0.1294E+03
     -7.642  0.2661E+02  0.1317E+03
     -7.556  0.3450E+02  0.1347E+03
     -7.471  0.2033E+02  0.1364E+03
     -7.385  0.1243E+02  0.1375E+03
     -7.299  0.2412E+02  0.1395E+03
     -7.214  0.3085E+02  0.1422E+03
     -7.128  0.2374E+02  0.1442E+03
     -7.043  0.2130E+02  0.1460E+03
     -6.957  0.2184E+02  0.1479E+03
     -6.872  0.1735E+02  0.1494E+03
     -6.786  0.1880E+02  0.1510E+03
     -6.700  0.2062E+02  0.1528E+03
     -6.615  0.2852E+02  0.1552E+03
     -6.529  0.3963E+02  0.1586E+03
     -6.444  0.3858E+02  0.1619E+03
     -6.358  0.3190E+02  0.1646E+03
     -6.273  0.3763E+02  0.1678E+03
     -6.187  0.3836E+02  0.1711E+03
     -6.101  0.2765E+02  0.1735E+03
     -6.016  0.1587E+02  0.1748E+03
     -5.930  0.1741E+02  0.1763E+03
     -5.845  0.1888E+02  0.1780E+03
     -5.759  0.1354E+02  0.1791E+03
     -5.674  0.1646E+02  0.1805E+03
     -5.588  0.1822E+02  0.1821E+03
     -5.502  0.1272E+02  0.1832E+03
     -5.417  0.1513E+02  0.1845E+03
     -5.331  0.1967E+02  0.1861E+03
     -5.246  0.2771E+02  0.1885E+03
     -5.160  0.3633E+02  0.1916E+03
     -5.075  0.5814E+02  0.1966E+03
     -4.989  0.7584E+02  0.2031E+03
     -4.903  0.6140E+02  0.2083E+03
     -4.818  0.4686E+02  0.2124E+03
     -4.732  0.3341E+02  0.2152E+03
     -4.647  0.1608E+02  0.2166E+03
     -4.561  0.1646E+02  0.2180E+03
     -4.476  0.2719E+02  0.2203E+03
     -4.390  0.3191E+02  0.2231E+03
     -4.304  0.2157E+02  0.2249E+03
     -4.219  0.1312E+02  0.2260E+03
     -4.133  0.1643E+02  0.2274E+03
     -4.048  0.2994E+02  0.2300E+03
     -3.962  0.3523E+02  0.2330E+03
     -3.877  0.3178E+02  0.2357E+03
     -3.791  0.2688E+02  0.2380E+03
     -3.705  0.2429E+02  0.2401E+03
     -3.620  0.4026E+02  0.2435E+03
     -3.534  0.4858E+02  0.2477E+03
     -3.449  0.3801E+02  0.2510E+03
     -3.363  0.3813E+02  0.2542E+03
     -3.278  0.4452E+02  0.2580E+03
     -3.192  0.3729E+02  0.2612E+03
     -3.106  0.1854E+02  0.2628E+03
     -3.021  0.1151E+02  0.2638E+03
     -2.935  0.1564E+02  0.2651E+03
     -2.850  0.1371E+02  0.2663E+03
     -2.764  0.8174E+01  0.2670E+03
     -2.679  0.9419E+01  0.2678E+03
     -2.593  0.1089E+02  0.2687E+03
     -2.507  0.8803E+01  0.2695E+03
     -2.422  0.4593E+01  0.2699E+03
     -2.336  0.1163E+01  0.2700E+03
     -2.251  0.1135E+00  0.2700E+03
     -2.165  0.3520E-02  0.2700E+03
     -2.080  0.7821E-03  0.2700E+03
     -1.994  0.4683E-01  0.2700E+03
     -1.908  0.8039E+00  0.2701E+03
     -1.823  0.4065E+01  0.2704E+03
     -1.737  0.7361E+01  0.2711E+03
     -1.652  0.1024E+02  0.2719E+03
     -1.566  0.1801E+02  0.2735E+03
     -1.481  0.2221E+02  0.2754E+03
     -1.395  0.1762E+02  0.2769E+03
     -1.309  0.1527E+02  0.2782E+03
     -1.224  0.2105E+02  0.2800E+03
     -1.138  0.2571E+02  0.2822E+03
     -1.053  0.2038E+02  0.2839E+03
     -0.967  0.8134E+01  0.2846E+03
     -0.882  0.5867E+01  0.2851E+03
     -0.796  0.7825E+01  0.2858E+03
     -0.710  0.4734E+01  0.2862E+03
     -0.625  0.6594E+01  0.2868E+03
     -0.539  0.8195E+01  0.2875E+03
     -0.454  0.3000E+01  0.2877E+03
     -0.368  0.2963E+00  0.2877E+03
     -0.283  0.9731E-02  0.2878E+03
     -0.197  0.8645E-01  0.2878E+03
     -0.111  0.9022E+00  0.2878E+03
     -0.026  0.2517E+01  0.2881E+03
      0.060  0.1917E+01  0.2882E+03
      0.145  0.3961E+00  0.2882E+03
      0.231  0.2211E-01  0.2883E+03
      0.316  0.4609E-01  0.2883E+03
      0.402  0.9562E+00  0.2883E+03
      0.488  0.5242E+01  0.2888E+03
      0.573  0.7838E+01  0.2895E+03
      0.659  0.4010E+01  0.2898E+03
      0.744  0.3648E+01  0.2901E+03
      0.830  0.3516E+01  0.2904E+03
      0.915  0.2068E+01  0.2906E+03
      1.001  0.9411E+01  0.2914E+03
      1.087  0.2452E+02  0.2935E+03
      1.172  0.2582E+02  0.2957E+03
      1.258  0.2022E+02  0.2974E+03
      1.343  0.1853E+02  0.2990E+03
      1.429  0.1810E+02  0.3006E+03
      1.514  0.1654E+02  0.3020E+03
      1.600  0.1779E+02  0.3035E+03
      1.686  0.1361E+02  0.3047E+03
      1.771  0.8325E+01  0.3054E+03
      1.857  0.1154E+02  0.3064E+03
      1.942  0.1962E+02  0.3080E+03
      2.028  0.1983E+02  0.3097E+03
      2.113  0.1539E+02  0.3111E+03
      2.199  0.1488E+02  0.3123E+03
      2.285  0.1630E+02  0.3137E+03
      2.370  0.1718E+02  0.3152E+03
      2.456  0.1937E+02  0.3169E+03
      2.541  0.1921E+02  0.3185E+03
      2.627  0.1734E+02  0.3200E+03
      2.712  0.1226E+02  0.3210E+03
      2.798  0.1937E+02  0.3227E+03
      2.884  0.2885E+02  0.3252E+03
      2.969  0.2309E+02  0.3271E+03
      3.055  0.1494E+02  0.3284E+03
      3.140  0.1375E+02  0.3296E+03
      3.226  0.1797E+02  0.3311E+03
      3.311  0.2764E+02  0.3335E+03
      3.397  0.2816E+02  0.3359E+03
      3.483  0.1524E+02  0.3372E+03
      3.568  0.1038E+02  0.3381E+03
      3.654  0.1056E+02  0.3390E+03
      3.739  0.1615E+02  0.3404E+03
      3.825  0.2352E+02  0.3424E+03
      3.910  0.2384E+02  0.3444E+03
      3.996  0.1961E+02  0.3461E+03
      4.082  0.1492E+02  0.3474E+03
      4.167  0.1368E+02  0.3486E+03
      4.253  0.1395E+02  0.3498E+03
      4.338  0.1665E+02  0.3512E+03
      4.424  0.2010E+02  0.3529E+03
      4.509  0.2045E+02  0.3547E+03
      4.595  0.1748E+02  0.3561E+03
      4.681  0.1395E+02  0.3573E+03
      4.766  0.1531E+02  0.3586E+03
      4.852  0.1208E+02  0.3597E+03
      4.937  0.3401E+01  0.3600E+03
      5.023  0.2990E+00  0.3600E+03
      5.108  0.7632E-02  0.3600E+03
      5.194  0.5275E-04  0.3600E+03
      5.280  0.9338E-07  0.3600E+03
      5.365  0.4079E-10  0.3600E+03
      5.451  0.3892E-14  0.3600E+03
      5.536  0.0000E+00  0.3600E+03
      5.622  0.0000E+00  0.3600E+03
      5.707  0.0000E+00  0.3600E+03
      5.793  0.0000E+00  0.3600E+03
      5.879  0.0000E+00  0.3600E+03
      5.964  0.0000E+00  0.3600E+03
