   8   8   0   0
  0.2469169E+02  0.5174038E-09  0.5174038E-09  0.8520222E-09  0.1000000E-16
  1.000000000000000E-004
  CAR 
 BC3                                     
      8.25206939    -19.81616421  301     -2.22089027      1.00000000
    -19.816  0.0000E+00  0.0000E+00
    -19.723  0.0000E+00  0.0000E+00
    -19.629  0.0000E+00  0.0000E+00
    -19.535  0.0000E+00  0.0000E+00
    -19.442  0.0000E+00  0.0000E+00
    -19.348  0.0000E+00  0.0000E+00
    -19.255  0.0000E+00  0.0000E+00
    -19.161  0.0000E+00  0.0000E+00
    -19.068  0.0000E+00  0.0000E+00
    -18.974  0.0000E+00  0.0000E+00
    -18.881  0.0000E+00  0.0000E+00
    -18.787  0.2288E-12  0.2140E-13
    -18.693  0.1259E-05  0.1178E-06
    -18.600  0.1322E-01  0.1237E-02
    -18.506  0.7282E+00  0.6937E-01
    -18.413  0.1868E+01  0.2442E+00
    -18.319  0.2140E+01  0.4444E+00
    -18.226  0.2185E+01  0.6489E+00
    -18.132  0.2412E+01  0.8745E+00
    -18.039  0.3493E+01  0.1201E+01
    -17.945  0.5153E+01  0.1683E+01
    -17.851  0.3166E+01  0.1980E+01
    -17.758  0.2170E+00  0.2000E+01
    -17.664  0.1852E-03  0.2000E+01
    -17.571  0.4561E-09  0.2000E+01
    -17.477  0.0000E+00  0.2000E+01
    -17.384  0.0000E+00  0.2000E+01
    -17.290  0.0000E+00  0.2000E+01
    -17.196  0.0000E+00  0.2000E+01
    -17.103  0.0000E+00  0.2000E+01
    -17.009  0.0000E+00  0.2000E+01
    -16.916  0.0000E+00  0.2000E+01
    -16.822  0.0000E+00  0.2000E+01
    -16.729  0.0000E+00  0.2000E+01
    -16.635  0.0000E+00  0.2000E+01
    -16.542  0.5735E-14  0.2000E+01
    -16.448  0.1481E-06  0.2000E+01
    -16.354  0.4661E-02  0.2000E+01
    -16.261  0.5544E+00  0.2052E+01
    -16.167  0.2658E+01  0.2301E+01
    -16.074  0.3174E+01  0.2598E+01
    -15.980  0.3493E+01  0.2925E+01
    -15.887  0.1894E+01  0.3102E+01
    -15.793  0.1732E+01  0.3264E+01
    -15.699  0.2084E+01  0.3459E+01
    -15.606  0.1920E+01  0.3639E+01
    -15.512  0.1726E+01  0.3800E+01
    -15.419  0.2431E+01  0.4028E+01
    -15.325  0.2451E+01  0.4257E+01
    -15.232  0.2486E+01  0.4489E+01
    -15.138  0.3295E+01  0.4798E+01
    -15.045  0.4171E+01  0.5188E+01
    -14.951  0.2586E+01  0.5430E+01
    -14.857  0.2204E+01  0.5636E+01
    -14.764  0.1992E+01  0.5823E+01
    -14.670  0.1432E+01  0.5956E+01
    -14.577  0.4585E+00  0.5999E+01
    -14.483  0.6708E-02  0.6000E+01
    -14.390  0.4191E-06  0.6000E+01
    -14.296  0.3405E-13  0.6000E+01
    -14.203  0.0000E+00  0.6000E+01
    -14.109  0.0000E+00  0.6000E+01
    -14.015  0.0000E+00  0.6000E+01
    -13.922  0.0000E+00  0.6000E+01
    -13.828  0.0000E+00  0.6000E+01
    -13.735  0.0000E+00  0.6000E+01
    -13.641  0.0000E+00  0.6000E+01
    -13.548  0.0000E+00  0.6000E+01
    -13.454  0.0000E+00  0.6000E+01
    -13.360  0.0000E+00  0.6000E+01
    -13.267  0.0000E+00  0.6000E+01
    -13.173  0.0000E+00  0.6000E+01
    -13.080  0.7240E-11  0.6000E+01
    -12.986  0.1542E-04  0.6000E+01
    -12.893  0.5337E-01  0.6005E+01
    -12.799  0.9855E+00  0.6097E+01
    -12.706  0.1662E+01  0.6253E+01
    -12.612  0.3102E+01  0.6543E+01
    -12.518  0.2328E+01  0.6761E+01
    -12.425  0.2246E+01  0.6971E+01
    -12.331  0.3946E+01  0.7340E+01
    -12.238  0.4243E+01  0.7737E+01
    -12.144  0.8547E+00  0.7817E+01
    -12.051  0.9080E+00  0.7902E+01
    -11.957  0.1202E+01  0.8014E+01
    -11.863  0.2330E+01  0.8232E+01
    -11.770  0.1761E+01  0.8397E+01
    -11.676  0.8465E+00  0.8476E+01
    -11.583  0.2565E+00  0.8500E+01
    -11.489  0.1390E+01  0.8630E+01
    -11.396  0.3448E+01  0.8953E+01
    -11.302  0.9980E+00  0.9046E+01
    -11.209  0.1449E+01  0.9182E+01
    -11.115  0.1338E+01  0.9307E+01
    -11.021  0.3227E+01  0.9609E+01
    -10.928  0.1330E+01  0.9733E+01
    -10.834  0.1082E+01  0.9835E+01
    -10.741  0.1034E+01  0.9931E+01
    -10.647  0.2781E+01  0.1019E+02
    -10.554  0.4138E+00  0.1023E+02
    -10.460  0.3425E+00  0.1026E+02
    -10.367  0.3291E+00  0.1029E+02
    -10.273  0.1393E+01  0.1042E+02
    -10.179  0.4501E+00  0.1047E+02
    -10.086  0.5092E+00  0.1051E+02
     -9.992  0.8336E-02  0.1051E+02
     -9.899  0.9644E-01  0.1052E+02
     -9.805  0.1990E+00  0.1054E+02
     -9.712  0.2646E+01  0.1079E+02
     -9.618  0.7963E+00  0.1086E+02
     -9.524  0.9035E+00  0.1095E+02
     -9.431  0.1062E+01  0.1105E+02
     -9.337  0.1891E+01  0.1122E+02
     -9.244  0.8605E+00  0.1131E+02
     -9.150  0.9836E+00  0.1140E+02
     -9.057  0.3389E+01  0.1171E+02
     -8.963  0.2771E+01  0.1197E+02
     -8.870  0.2549E+01  0.1221E+02
     -8.776  0.1540E+01  0.1236E+02
     -8.682  0.1223E+01  0.1247E+02
     -8.589  0.4576E+00  0.1251E+02
     -8.495  0.5116E+00  0.1256E+02
     -8.402  0.4209E+01  0.1296E+02
     -8.308  0.5128E+01  0.1343E+02
     -8.215  0.2113E+01  0.1363E+02
     -8.121  0.2070E+00  0.1365E+02
     -8.028  0.1048E+01  0.1375E+02
     -7.934  0.2935E+01  0.1402E+02
     -7.840  0.1685E+01  0.1418E+02
     -7.747  0.1643E+01  0.1434E+02
     -7.653  0.2208E+01  0.1454E+02
     -7.560  0.5055E+01  0.1502E+02
     -7.466  0.1760E+01  0.1518E+02
     -7.373  0.7304E+00  0.1525E+02
     -7.279  0.3373E+01  0.1556E+02
     -7.185  0.3820E+01  0.1592E+02
     -7.092  0.1667E+01  0.1608E+02
     -6.998  0.3035E+01  0.1636E+02
     -6.905  0.1758E+01  0.1653E+02
     -6.811  0.2200E+01  0.1673E+02
     -6.718  0.1874E+01  0.1691E+02
     -6.624  0.2844E+01  0.1717E+02
     -6.531  0.4722E+01  0.1761E+02
     -6.437  0.4660E+01  0.1805E+02
     -6.343  0.2727E+01  0.1831E+02
     -6.250  0.5003E+01  0.1877E+02
     -6.156  0.4059E+01  0.1915E+02
     -6.063  0.2382E+01  0.1938E+02
     -5.969  0.1054E+01  0.1948E+02
     -5.876  0.2740E+01  0.1973E+02
     -5.782  0.1598E+01  0.1988E+02
     -5.688  0.1158E+01  0.1999E+02
     -5.595  0.2847E+01  0.2026E+02
     -5.501  0.7248E+00  0.2032E+02
     -5.408  0.2161E+01  0.2053E+02
     -5.314  0.1837E+01  0.2070E+02
     -5.221  0.3555E+01  0.2103E+02
     -5.127  0.3511E+01  0.2136E+02
     -5.034  0.8896E+01  0.2219E+02
     -4.940  0.8801E+01  0.2301E+02
     -4.846  0.4655E+01  0.2345E+02
     -4.753  0.5153E+01  0.2393E+02
     -4.659  0.1105E+01  0.2404E+02
     -4.566  0.1731E+01  0.2420E+02
     -4.472  0.2769E+01  0.2446E+02
     -4.379  0.4270E+01  0.2486E+02
     -4.285  0.1950E+01  0.2504E+02
     -4.192  0.1052E+01  0.2514E+02
     -4.098  0.1948E+01  0.2532E+02
     -4.004  0.4641E+01  0.2575E+02
     -3.911  0.3235E+01  0.2606E+02
     -3.817  0.3873E+01  0.2642E+02
     -3.724  0.1855E+01  0.2659E+02
     -3.630  0.3871E+01  0.2695E+02
     -3.537  0.6548E+01  0.2757E+02
     -3.443  0.3536E+01  0.2790E+02
     -3.349  0.4298E+01  0.2830E+02
     -3.256  0.5328E+01  0.2880E+02
     -3.162  0.3891E+01  0.2916E+02
     -3.069  0.7247E+00  0.2923E+02
     -2.975  0.1576E+01  0.2938E+02
     -2.882  0.2129E+01  0.2958E+02
     -2.788  0.6972E+00  0.2964E+02
     -2.695  0.9641E+00  0.2973E+02
     -2.601  0.1325E+01  0.2986E+02
     -2.507  0.1086E+01  0.2996E+02
     -2.414  0.4324E+00  0.3000E+02
     -2.320  0.2038E-01  0.3000E+02
     -2.227  0.5184E-05  0.3000E+02
     -2.133  0.1723E-11  0.3000E+02
     -2.040  0.1944E-09  0.3000E+02
     -1.946  0.1119E-03  0.3000E+02
     -1.852  0.1139E+00  0.3001E+02
     -1.759  0.1004E+01  0.3010E+02
     -1.665  0.7250E+00  0.3017E+02
     -1.572  0.1973E+01  0.3036E+02
     -1.478  0.2713E+01  0.3061E+02
     -1.385  0.1900E+01  0.3079E+02
     -1.291  0.1549E+01  0.3093E+02
     -1.198  0.2445E+01  0.3116E+02
     -1.104  0.3407E+01  0.3148E+02
     -1.010  0.1507E+01  0.3162E+02
     -0.917  0.1078E+00  0.3163E+02
     -0.823  0.1284E+01  0.3175E+02
     -0.730  0.4204E+00  0.3179E+02
     -0.636  0.3877E+00  0.3183E+02
     -0.543  0.1467E+01  0.3197E+02
     -0.449  0.7513E-01  0.3197E+02
     -0.356  0.1070E-04  0.3197E+02
     -0.262  0.2037E-09  0.3197E+02
     -0.168  0.1260E-03  0.3197E+02
     -0.075  0.1127E+00  0.3198E+02
      0.019  0.4581E+00  0.3203E+02
      0.112  0.2287E-01  0.3203E+02
      0.206  0.3007E-05  0.3203E+02
      0.299  0.1203E-08  0.3203E+02
      0.393  0.5681E-03  0.3203E+02
      0.487  0.3932E+00  0.3206E+02
      0.580  0.1334E+01  0.3219E+02
      0.674  0.7006E-01  0.3220E+02
      0.767  0.6165E+00  0.3225E+02
      0.861  0.2574E+00  0.3228E+02
      0.954  0.1199E-01  0.3228E+02
      1.048  0.1889E+01  0.3246E+02
      1.141  0.3651E+01  0.3280E+02
      1.235  0.2183E+01  0.3300E+02
      1.329  0.1994E+01  0.3319E+02
      1.422  0.2360E+01  0.3341E+02
      1.516  0.1290E+01  0.3353E+02
      1.609  0.2411E+01  0.3376E+02
      1.703  0.1393E+01  0.3389E+02
      1.796  0.6468E+00  0.3395E+02
      1.890  0.1326E+01  0.3407E+02
      1.983  0.3034E+01  0.3435E+02
      2.077  0.1591E+01  0.3450E+02
      2.171  0.1655E+01  0.3466E+02
      2.264  0.1730E+01  0.3482E+02
      2.358  0.1716E+01  0.3498E+02
      2.451  0.2567E+01  0.3522E+02
      2.545  0.1692E+01  0.3538E+02
      2.638  0.2470E+01  0.3561E+02
      2.732  0.5541E+00  0.3566E+02
      2.826  0.2791E+01  0.3592E+02
      2.919  0.3759E+01  0.3627E+02
      3.013  0.1823E+01  0.3644E+02
      3.106  0.1135E+01  0.3655E+02
      3.200  0.1800E+01  0.3672E+02
      3.293  0.2407E+01  0.3694E+02
      3.387  0.4577E+01  0.3737E+02
      3.480  0.8861E+00  0.3746E+02
      3.574  0.1327E+01  0.3758E+02
      3.668  0.1041E+01  0.3768E+02
      3.761  0.1665E+01  0.3783E+02
      3.855  0.3364E+01  0.3815E+02
      3.948  0.2523E+01  0.3838E+02
      4.042  0.1543E+01  0.3853E+02
      4.135  0.1861E+01  0.3870E+02
      4.229  0.1027E+01  0.3880E+02
      4.323  0.2049E+01  0.3899E+02
      4.416  0.2148E+01  0.3919E+02
      4.510  0.2369E+01  0.3941E+02
      4.603  0.2379E+01  0.3964E+02
      4.697  0.1631E+01  0.3979E+02
      4.790  0.4056E+01  0.4017E+02
      4.884  0.3577E+01  0.4050E+02
      4.977  0.1445E+01  0.4064E+02
      5.071  0.2175E+01  0.4084E+02
      5.165  0.3694E+01  0.4119E+02
      5.258  0.4268E+01  0.4159E+02
      5.352  0.1741E+01  0.4175E+02
      5.445  0.1215E+01  0.4186E+02
      5.539  0.3089E+01  0.4215E+02
      5.632  0.4236E+01  0.4255E+02
      5.726  0.2786E+01  0.4281E+02
      5.819  0.2233E+01  0.4302E+02
      5.913  0.3211E+01  0.4332E+02
      6.007  0.4475E+01  0.4374E+02
      6.100  0.3263E+01  0.4404E+02
      6.194  0.3770E+01  0.4439E+02
      6.287  0.2835E+01  0.4466E+02
      6.381  0.3954E+01  0.4503E+02
      6.474  0.2725E+01  0.4528E+02
      6.568  0.9048E+01  0.4613E+02
      6.662  0.3914E+01  0.4650E+02
      6.755  0.4182E+01  0.4689E+02
      6.849  0.5597E+01  0.4741E+02
      6.942  0.4062E+01  0.4779E+02
      7.036  0.2165E+01  0.4799E+02
      7.129  0.5577E-01  0.4800E+02
      7.223  0.7279E-05  0.4800E+02
      7.316  0.1384E-11  0.4800E+02
      7.410  0.0000E+00  0.4800E+02
      7.504  0.0000E+00  0.4800E+02
      7.597  0.0000E+00  0.4800E+02
      7.691  0.0000E+00  0.4800E+02
      7.784  0.0000E+00  0.4800E+02
      7.878  0.0000E+00  0.4800E+02
      7.971  0.0000E+00  0.4800E+02
      8.065  0.0000E+00  0.4800E+02
      8.159  0.0000E+00  0.4800E+02
      8.252  0.0000E+00  0.4800E+02
