   72   72    1    1
  0.2469169E+02  0.1552211E-08  0.1552211E-08  0.8520221E-09  0.5000000E-15
  1.000000000000000E-004
  CAR 
 BC3                                     
    270      4    180
