  72   72
1 1
    40.389975893290000     0.000000000000000    -0.000000000000000
     0.000000000000000    40.389969731020003    -0.000000000000000
    -0.000000000000000    -0.000000000000000    12.397737605260000
1 2
    -0.194877356240000    -0.208886250040000    -0.000000000000000
    -0.314076847600000     0.107055495060000     0.000000000000000
     0.000000000000000    -0.000000000000000     0.013006389770000
1 3
    -0.194877356240000    -0.314076847600000     0.000000000000000
    -0.208886250040000     0.107055495060000    -0.000000000000000
    -0.000000000000000     0.000000000000000     0.013006389770000
1 4
    -0.194877356240000     0.314076847600000    -0.000000000000000
     0.208886250040000     0.107055495060000    -0.000000000000000
    -0.000000000000000    -0.000000000000000     0.013006389770000
1 5
     0.258021920710000    -0.052595298780000     0.000000000000000
     0.052595298780000    -0.345843781890000     0.000000000000000
     0.000000000000000     0.000000000000000     0.013006389770000
1 6
    -0.141670262970000     0.000000000000000    -0.000000000000000
    -0.000000000000000    -0.141670154860000    -0.000000000000000
     0.000000000000000     0.000000000000000     0.001125208880000
1 7
    -0.194877356240000     0.208886250040000    -0.000000000000000
     0.314076847600000     0.107055495060000    -0.000000000000000
    -0.000000000000000    -0.000000000000000     0.013006389770000
1 8
    -0.141670262970000    -0.000000000000000     0.000000000000000
     0.000000000000000    -0.141670154860000     0.000000000000000
    -0.000000000000000    -0.000000000000000     0.001125208880000
1 9
     0.258021920710000     0.052595298780000     0.000000000000000
    -0.052595298780000    -0.345843781890000     0.000000000000000
     0.000000000000000     0.000000000000000     0.013006389770000
1 10
    -0.644823608540000     0.000000000000000    -0.000000000000000
     0.000000000000000     1.077519180580000    -0.000000000000000
    -0.000000000000000    -0.000000000000000    -0.397387278480000
1 11
    -0.056921860980000    -0.105098487840000     0.000000000000000
    -0.105098487840000     0.064435397870000    -0.000000000000000
    -0.000000000000000     0.000000000000000    -0.019036333130000
1 12
     0.646933591410000    -0.745796294450000    -0.000000000000000
    -0.745796294450000    -0.214237803150000    -0.000000000000000
    -0.000000000000000    -0.000000000000000    -0.397387278480000
1 13
     0.646933591410000     0.745796294450000    -0.000000000000000
     0.745796294450000    -0.214237803150000    -0.000000000000000
     0.000000000000000     0.000000000000000    -0.397387278480000
1 14
    -0.290419460630000    -0.278343357410000     0.000000000000000
    -0.278343357410000    -0.611822598600000    -0.000000000000000
     0.000000000000000     0.000000000000000    -0.115104608890000
1 15
    -0.772524329750000    -0.000000000000000    -0.000000000000000
    -0.000000000000000    -0.129717729480000    -0.000000000000000
    -0.000000000000000    -0.000000000000000    -0.115104608890000
1 16
    -0.056921860980000     0.105098487840000    -0.000000000000000
     0.105098487840000     0.064435397870000    -0.000000000000000
     0.000000000000000    -0.000000000000000    -0.019036333130000
1 17
     0.125114081350000    -0.000000000000000    -0.000000000000000
    -0.000000000000000    -0.117600544460000    -0.000000000000000
    -0.000000000000000    -0.000000000000000    -0.019036333130000
1 18
    -0.290419460630000     0.278343357410000     0.000000000000000
     0.278343357410000    -0.611822598600000    -0.000000000000000
     0.000000000000000     0.000000000000000    -0.115104608890000
1 19
    -9.461858695616813     4.905151471042507     0.000000000000000
     4.905151471042507   -15.125837919559714    -0.000000000000000
    -0.000000000000000    -0.000000000000000    -5.332179967775483
1 20
    -0.009721827531396    -0.048955894044230    -0.000000000000000
     0.058301109725527    -0.049725868710228     0.000000000000000
     0.000000000000000     0.000000000000000     0.007876258537685
1 21
    -0.035678303677580     0.073286956747199     0.000000000000000
    -0.033969933070410    -0.023769506516194     0.000000000000000
     0.000000000000000     0.000000000000000     0.007876258537685
1 22
     0.366504522450748     0.081369240768993    -0.000000000000000
     0.264349042407805    -0.426634792060633    -0.000000000000000
     0.000000000000000    -0.000000000000000     0.627369022115980
1 23
    -0.078649544845746     0.521358996704965     0.000000000000000
     0.338379081114005     0.018519275235861    -0.000000000000000
    -0.000000000000000    -0.000000000000000     0.627369022115980
1 24
    -0.085402691009880    -0.062831391332960     0.000000000000000
    -0.062831391332960    -0.012851181427748    -0.000000000000000
     0.000000000000000     0.000000000000000    -0.007523462686578
1 25
     0.155983284235182    -0.077946801947239     0.000000000000000
    -0.112747104322241     0.059210106012439     0.000000000000000
     0.000000000000000    -0.000000000000000     0.008327167188470
1 26
    -0.058580862249580    -0.078690339714834     0.000000000000000
    -0.078690339714834     0.032282871514970    -0.000000000000000
     0.000000000000000    -0.000000000000000     0.012974591604346
1 27
     0.000830483256741    -0.023169548455445     0.000000000000000
     0.011630639967409     0.214362906990881     0.000000000000000
    -0.000000000000000     0.000000000000000     0.008327167188470
1 28
    -1.321017057811447     2.328628103615326    -0.000000000000000
     0.598864917790468    -0.018320086880650     0.000000000000000
     0.000000000000000     0.000000000000000     0.322247901049866
1 29
     0.055217222736343     0.031029397883776    -0.000000000000000
    -0.087601511663292     0.004165976589349     0.000000000000000
     0.000000000000000     0.000000000000000     0.000107001067245
1 30
    -0.021056989578289     0.130519423226058     0.000000000000000
     0.130519423226058     0.129653842707644    -0.000000000000000
     0.000000000000000     0.000000000000000     0.012028788773536
1 31
    -1.611636058725382     0.431075963088103    -0.000000000000000
     2.160839148912960     0.272298914033285    -0.000000000000000
    -0.000000000000000     0.000000000000000     0.322247901049866
1 32
     0.096649540141847     0.330399240073524    -0.000000000000000
     0.330399240073524     0.478161560522443    -0.000000000000000
     0.000000000000000    -0.000000000000000    -0.253577373734209
1 33
     0.205301090302382     0.117858769790252    -0.000000000000000
     0.116351980533408     0.014105566676129     0.000000000000000
     0.000000000000000     0.000000000000000     0.034798023332036
1 34
    -0.105526298541522     0.062310516063125     0.000000000000000
     0.062310516063125    -0.033576228398066     0.000000000000000
     0.000000000000000     0.000000000000000    -0.050233525530862
1 35
     0.041425252372310    -0.095564259881530    -0.000000000000000
     0.023066535713390     0.017957946953383    -0.000000000000000
     0.000000000000000    -0.000000000000000     0.000107001067245
1 36
    -0.039511881850366    -0.024990845641570    -0.000000000000000
    -0.023483942432578     0.258918424876728     0.000000000000000
     0.000000000000000    -0.000000000000000     0.034798023332036
1 37
   -17.957830950095616     0.000000000000000    -0.000000000000000
     0.000000000000000    -6.629866918554544    -0.000000000000000
    -0.000000000000000     0.000000000000000    -5.332179967775483
1 38
    -0.378050382019829     0.165519939525606     0.000000000000000
     0.348499741164418     0.317920112409945    -0.000000000000000
     0.000000000000000    -0.000000000000000     0.627369022115980
1 39
     0.165976317879510     0.106977707054297    -0.000000000000000
     0.072177404679295     0.049217072368112     0.000000000000000
    -0.000000000000000     0.000000000000000     0.008327167188470
1 40
     0.165976317879510    -0.106977707054297     0.000000000000000
    -0.072177404679295     0.049217072368112     0.000000000000000
    -0.000000000000000    -0.000000000000000     0.008327167188470
1 41
    -0.043771413153461     0.038642540911058    -0.000000000000000
    -0.068614348906551    -0.015676283088164     0.000000000000000
     0.000000000000000     0.000000000000000     0.007876258537685
1 42
     0.023424459411170     0.000000000000000     0.000000000000000
    -0.000000000000000    -0.121678445800947    -0.000000000000000
     0.000000000000000    -0.000000000000000    -0.007523462686578
1 43
    -0.378050382019829    -0.165519939525606    -0.000000000000000
    -0.348499741164418     0.317920112409945    -0.000000000000000
    -0.000000000000000    -0.000000000000000     0.627369022115980
1 44
     0.077714681421171     0.000000000000000    -0.000000000000000
    -0.000000000000000    -0.104012786107929    -0.000000000000000
    -0.000000000000000     0.000000000000000     0.012974591604346
1 45
    -0.043771413153461    -0.038642540911058     0.000000000000000
     0.068614348906551    -0.015676283088164     0.000000000000000
    -0.000000000000000    -0.000000000000000     0.007876258537685
1 46
     0.205009258850611     0.000000000000000     0.000000000000000
    -0.000000000000000    -0.096412405721255     0.000000000000000
     0.000000000000000    -0.000000000000000     0.012028788773536
1 47
    -0.007567676120115    -0.051352649579222    -0.000000000000000
     0.067278259967845     0.066950875445807    -0.000000000000000
    -0.000000000000000     0.000000000000000     0.000107001067245
1 48
     0.923647456474758    -0.697092581233989    -0.000000000000000
     1.032670604590868    -2.262984259310410     0.000000000000000
     0.000000000000000     0.000000000000000     0.322247901049866
1 49
     0.923647456474758     0.697092581233989     0.000000000000000
    -1.032670604590868    -2.262984259310410     0.000000000000000
    -0.000000000000000    -0.000000000000000     0.322247901049866
1 50
     0.163320663063602     0.140589374570482     0.000000000000000
     0.142096163827326     0.056085879962761     0.000000000000000
    -0.000000000000000     0.000000000000000     0.034798023332036
1 51
     0.668917798617037     0.000000000000000    -0.000000000000000
    -0.000000000000000    -0.094106584000599    -0.000000000000000
    -0.000000000000000     0.000000000000000    -0.253577373734209
1 52
    -0.007567676120115     0.051352649579222     0.000000000000000
    -0.067278259967845     0.066950875445807     0.000000000000000
    -0.000000000000000     0.000000000000000     0.000107001067245
1 53
     0.002398692721513    -0.000000000000000     0.000000000000000
     0.000000000000000    -0.141501219661102    -0.000000000000000
     0.000000000000000    -0.000000000000000    -0.050233525530862
1 54
     0.163320663063602    -0.140589374570482    -0.000000000000000
    -0.142096163827326     0.056085879962761     0.000000000000000
    -0.000000000000000     0.000000000000000     0.034798023332036
1 55
    -9.461858695616813    -4.905151471042507    -0.000000000000000
    -4.905151471042507   -15.125837919559714    -0.000000000000000
     0.000000000000000    -0.000000000000000    -5.332179967775483
1 56
     0.155983284235182     0.077946801947239    -0.000000000000000
     0.112747104322241     0.059210106012439     0.000000000000000
     0.000000000000000     0.000000000000000     0.008327167188470
1 57
     0.366504522450748    -0.081369240768993     0.000000000000000
    -0.264349042407805    -0.426634792060633    -0.000000000000000
    -0.000000000000000     0.000000000000000     0.627369022115980
1 58
    -0.035678303677580    -0.073286956747199    -0.000000000000000
     0.033969933070410    -0.023769506516194     0.000000000000000
    -0.000000000000000     0.000000000000000     0.007876258537685
1 59
     0.000830483256741     0.023169548455445    -0.000000000000000
    -0.011630639967409     0.214362906990881     0.000000000000000
     0.000000000000000     0.000000000000000     0.008327167188470
1 60
    -0.085402691009880     0.062831391332960    -0.000000000000000
     0.062831391332960    -0.012851181427748    -0.000000000000000
     0.000000000000000     0.000000000000000    -0.007523462686578
1 61
    -0.009721827531396     0.048955894044230     0.000000000000000
    -0.058301109725527    -0.049725868710228     0.000000000000000
     0.000000000000000    -0.000000000000000     0.007876258537685
1 62
    -0.058580862249580     0.078690339714834    -0.000000000000000
     0.078690339714834     0.032282871514970    -0.000000000000000
     0.000000000000000     0.000000000000000     0.012974591604346
1 63
    -0.078649544845746    -0.521358996704965    -0.000000000000000
    -0.338379081114005     0.018519275235861    -0.000000000000000
     0.000000000000000     0.000000000000000     0.627369022115980
1 64
    -1.321017057811447    -2.328628103615326     0.000000000000000
    -0.598864917790468    -0.018320086880650     0.000000000000000
    -0.000000000000000     0.000000000000000     0.322247901049866
1 65
    -0.105526298541522    -0.062310516063125    -0.000000000000000
    -0.062310516063125    -0.033576228398066     0.000000000000000
     0.000000000000000     0.000000000000000    -0.050233525530862
1 66
    -1.611636058725382    -0.431075963088103     0.000000000000000
    -2.160839148912960     0.272298914033285    -0.000000000000000
     0.000000000000000     0.000000000000000     0.322247901049866
1 67
    -0.021056989578289    -0.130519423226058    -0.000000000000000
    -0.130519423226058     0.129653842707644    -0.000000000000000
     0.000000000000000     0.000000000000000     0.012028788773536
1 68
    -0.039511881850366     0.024990845641570     0.000000000000000
     0.023483942432578     0.258918424876728     0.000000000000000
    -0.000000000000000     0.000000000000000     0.034798023332036
1 69
     0.205301090302382    -0.117858769790252     0.000000000000000
    -0.116351980533408     0.014105566676129     0.000000000000000
    -0.000000000000000    -0.000000000000000     0.034798023332036
1 70
     0.055217222736343    -0.031029397883776     0.000000000000000
     0.087601511663292     0.004165976589349     0.000000000000000
     0.000000000000000     0.000000000000000     0.000107001067245
1 71
     0.041425252372310     0.095564259881530     0.000000000000000
    -0.023066535713390     0.017957946953383    -0.000000000000000
    -0.000000000000000    -0.000000000000000     0.000107001067245
1 72
     0.096649540141847    -0.330399240073524     0.000000000000000
    -0.330399240073524     0.478161560522443    -0.000000000000000
    -0.000000000000000    -0.000000000000000    -0.253577373734209
2 1
    -0.194877356240000    -0.314076847600000     0.000000000000000
    -0.208886250040000     0.107055495060000    -0.000000000000000
    -0.000000000000000     0.000000000000000     0.013006389770000
2 2
    40.389975893290000     0.000000000000000    -0.000000000000000
     0.000000000000000    40.389969731020003    -0.000000000000000
    -0.000000000000000    -0.000000000000000    12.397737605260000
2 3
    -0.194877356240000    -0.208886250040000    -0.000000000000000
    -0.314076847600000     0.107055495060000     0.000000000000000
     0.000000000000000    -0.000000000000000     0.013006389770000
2 4
    -0.141670262970000     0.000000000000000    -0.000000000000000
    -0.000000000000000    -0.141670154860000    -0.000000000000000
     0.000000000000000     0.000000000000000     0.001125208880000
2 5
    -0.194877356240000     0.314076847600000    -0.000000000000000
     0.208886250040000     0.107055495060000    -0.000000000000000
    -0.000000000000000    -0.000000000000000     0.013006389770000
2 6
     0.258021920710000    -0.052595298780000     0.000000000000000
     0.052595298780000    -0.345843781890000     0.000000000000000
     0.000000000000000     0.000000000000000     0.013006389770000
2 7
     0.258021920710000     0.052595298780000     0.000000000000000
    -0.052595298780000    -0.345843781890000     0.000000000000000
     0.000000000000000     0.000000000000000     0.013006389770000
2 8
    -0.194877356240000     0.208886250040000    -0.000000000000000
     0.314076847600000     0.107055495060000    -0.000000000000000
    -0.000000000000000    -0.000000000000000     0.013006389770000
2 9
    -0.141670262970000    -0.000000000000000     0.000000000000000
     0.000000000000000    -0.141670154860000     0.000000000000000
    -0.000000000000000    -0.000000000000000     0.001125208880000
2 10
     0.646933591410000    -0.745796294450000    -0.000000000000000
    -0.745796294450000    -0.214237803150000    -0.000000000000000
    -0.000000000000000    -0.000000000000000    -0.397387278480000
2 11
    -0.644823608540000     0.000000000000000    -0.000000000000000
     0.000000000000000     1.077519180580000    -0.000000000000000
    -0.000000000000000    -0.000000000000000    -0.397387278480000
2 12
    -0.056921860980000    -0.105098487840000     0.000000000000000
    -0.105098487840000     0.064435397870000    -0.000000000000000
    -0.000000000000000     0.000000000000000    -0.019036333130000
2 13
    -0.772524329750000    -0.000000000000000    -0.000000000000000
    -0.000000000000000    -0.129717729480000    -0.000000000000000
    -0.000000000000000    -0.000000000000000    -0.115104608890000
2 14
     0.646933591410000     0.745796294450000    -0.000000000000000
     0.745796294450000    -0.214237803150000    -0.000000000000000
     0.000000000000000     0.000000000000000    -0.397387278480000
2 15
    -0.290419460630000    -0.278343357410000     0.000000000000000
    -0.278343357410000    -0.611822598600000    -0.000000000000000
     0.000000000000000     0.000000000000000    -0.115104608890000
2 16
    -0.290419460630000     0.278343357410000     0.000000000000000
     0.278343357410000    -0.611822598600000    -0.000000000000000
     0.000000000000000     0.000000000000000    -0.115104608890000
2 17
    -0.056921860980000     0.105098487840000    -0.000000000000000
     0.105098487840000     0.064435397870000    -0.000000000000000
     0.000000000000000    -0.000000000000000    -0.019036333130000
2 18
     0.125114081350000    -0.000000000000000    -0.000000000000000
    -0.000000000000000    -0.117600544460000    -0.000000000000000
    -0.000000000000000    -0.000000000000000    -0.019036333130000
2 19
    -0.035678303677580     0.073286956747199     0.000000000000000
    -0.033969933070410    -0.023769506516194     0.000000000000000
     0.000000000000000     0.000000000000000     0.007876258537685
2 20
    -9.461858695616813     4.905151471042507     0.000000000000000
     4.905151471042507   -15.125837919559714    -0.000000000000000
    -0.000000000000000    -0.000000000000000    -5.332179967775483
2 21
    -0.009721827531396    -0.048955894044230    -0.000000000000000
     0.058301109725527    -0.049725868710228     0.000000000000000
     0.000000000000000     0.000000000000000     0.007876258537685
2 22
    -0.085402691009880    -0.062831391332960     0.000000000000000
    -0.062831391332960    -0.012851181427748    -0.000000000000000
     0.000000000000000     0.000000000000000    -0.007523462686578
2 23
     0.366504522450748     0.081369240768993    -0.000000000000000
     0.264349042407805    -0.426634792060633    -0.000000000000000
     0.000000000000000    -0.000000000000000     0.627369022115980
2 24
    -0.078649544845746     0.521358996704965     0.000000000000000
     0.338379081114005     0.018519275235861    -0.000000000000000
    -0.000000000000000    -0.000000000000000     0.627369022115980
2 25
     0.000830483256741    -0.023169548455445     0.000000000000000
     0.011630639967409     0.214362906990881     0.000000000000000
    -0.000000000000000     0.000000000000000     0.008327167188470
2 26
     0.155983284235182    -0.077946801947239     0.000000000000000
    -0.112747104322241     0.059210106012439     0.000000000000000
     0.000000000000000    -0.000000000000000     0.008327167188470
2 27
    -0.058580862249580    -0.078690339714834     0.000000000000000
    -0.078690339714834     0.032282871514970    -0.000000000000000
     0.000000000000000    -0.000000000000000     0.012974591604346
2 28
    -0.021056989578289     0.130519423226058     0.000000000000000
     0.130519423226058     0.129653842707644    -0.000000000000000
     0.000000000000000     0.000000000000000     0.012028788773536
2 29
    -1.321017057811447     2.328628103615326    -0.000000000000000
     0.598864917790468    -0.018320086880650     0.000000000000000
     0.000000000000000     0.000000000000000     0.322247901049866
2 30
     0.055217222736343     0.031029397883776    -0.000000000000000
    -0.087601511663292     0.004165976589349     0.000000000000000
     0.000000000000000     0.000000000000000     0.000107001067245
2 31
     0.205301090302382     0.117858769790252    -0.000000000000000
     0.116351980533408     0.014105566676129     0.000000000000000
     0.000000000000000     0.000000000000000     0.034798023332036
2 32
    -1.611636058725382     0.431075963088103    -0.000000000000000
     2.160839148912960     0.272298914033285    -0.000000000000000
    -0.000000000000000     0.000000000000000     0.322247901049866
2 33
     0.096649540141847     0.330399240073524    -0.000000000000000
     0.330399240073524     0.478161560522443    -0.000000000000000
     0.000000000000000    -0.000000000000000    -0.253577373734209
2 34
    -0.039511881850366    -0.024990845641570    -0.000000000000000
    -0.023483942432578     0.258918424876728     0.000000000000000
     0.000000000000000    -0.000000000000000     0.034798023332036
2 35
    -0.105526298541522     0.062310516063125     0.000000000000000
     0.062310516063125    -0.033576228398066     0.000000000000000
     0.000000000000000     0.000000000000000    -0.050233525530862
2 36
     0.041425252372310    -0.095564259881530    -0.000000000000000
     0.023066535713390     0.017957946953383    -0.000000000000000
     0.000000000000000    -0.000000000000000     0.000107001067245
2 37
     0.165976317879510     0.106977707054297    -0.000000000000000
     0.072177404679295     0.049217072368112     0.000000000000000
    -0.000000000000000     0.000000000000000     0.008327167188470
2 38
   -17.957830950095616     0.000000000000000    -0.000000000000000
     0.000000000000000    -6.629866918554544    -0.000000000000000
    -0.000000000000000     0.000000000000000    -5.332179967775483
2 39
    -0.378050382019829     0.165519939525606     0.000000000000000
     0.348499741164418     0.317920112409945    -0.000000000000000
     0.000000000000000    -0.000000000000000     0.627369022115980
2 40
     0.023424459411170     0.000000000000000     0.000000000000000
    -0.000000000000000    -0.121678445800947    -0.000000000000000
     0.000000000000000    -0.000000000000000    -0.007523462686578
2 41
     0.165976317879510    -0.106977707054297     0.000000000000000
    -0.072177404679295     0.049217072368112     0.000000000000000
    -0.000000000000000    -0.000000000000000     0.008327167188470
2 42
    -0.043771413153461     0.038642540911058    -0.000000000000000
    -0.068614348906551    -0.015676283088164     0.000000000000000
     0.000000000000000     0.000000000000000     0.007876258537685
2 43
    -0.043771413153461    -0.038642540911058     0.000000000000000
     0.068614348906551    -0.015676283088164     0.000000000000000
    -0.000000000000000    -0.000000000000000     0.007876258537685
2 44
    -0.378050382019829    -0.165519939525606    -0.000000000000000
    -0.348499741164418     0.317920112409945    -0.000000000000000
    -0.000000000000000    -0.000000000000000     0.627369022115980
2 45
     0.077714681421171     0.000000000000000    -0.000000000000000
    -0.000000000000000    -0.104012786107929    -0.000000000000000
    -0.000000000000000     0.000000000000000     0.012974591604346
2 46
     0.923647456474758    -0.697092581233989    -0.000000000000000
     1.032670604590868    -2.262984259310410     0.000000000000000
     0.000000000000000     0.000000000000000     0.322247901049866
2 47
     0.205009258850611     0.000000000000000     0.000000000000000
    -0.000000000000000    -0.096412405721255     0.000000000000000
     0.000000000000000    -0.000000000000000     0.012028788773536
2 48
    -0.007567676120115    -0.051352649579222    -0.000000000000000
     0.067278259967845     0.066950875445807    -0.000000000000000
    -0.000000000000000     0.000000000000000     0.000107001067245
2 49
     0.668917798617037     0.000000000000000    -0.000000000000000
    -0.000000000000000    -0.094106584000599    -0.000000000000000
    -0.000000000000000     0.000000000000000    -0.253577373734209
2 50
     0.923647456474758     0.697092581233989     0.000000000000000
    -1.032670604590868    -2.262984259310410     0.000000000000000
    -0.000000000000000    -0.000000000000000     0.322247901049866
2 51
     0.163320663063602     0.140589374570482     0.000000000000000
     0.142096163827326     0.056085879962761     0.000000000000000
    -0.000000000000000     0.000000000000000     0.034798023332036
2 52
     0.163320663063602    -0.140589374570482    -0.000000000000000
    -0.142096163827326     0.056085879962761     0.000000000000000
    -0.000000000000000     0.000000000000000     0.034798023332036
2 53
    -0.007567676120115     0.051352649579222     0.000000000000000
    -0.067278259967845     0.066950875445807     0.000000000000000
    -0.000000000000000     0.000000000000000     0.000107001067245
2 54
     0.002398692721513    -0.000000000000000     0.000000000000000
     0.000000000000000    -0.141501219661102    -0.000000000000000
     0.000000000000000    -0.000000000000000    -0.050233525530862
2 55
     0.366504522450748    -0.081369240768993     0.000000000000000
    -0.264349042407805    -0.426634792060633    -0.000000000000000
    -0.000000000000000     0.000000000000000     0.627369022115980
2 56
    -9.461858695616813    -4.905151471042507    -0.000000000000000
    -4.905151471042507   -15.125837919559714    -0.000000000000000
     0.000000000000000    -0.000000000000000    -5.332179967775483
2 57
     0.155983284235182     0.077946801947239    -0.000000000000000
     0.112747104322241     0.059210106012439     0.000000000000000
     0.000000000000000     0.000000000000000     0.008327167188470
2 58
    -0.085402691009880     0.062831391332960    -0.000000000000000
     0.062831391332960    -0.012851181427748    -0.000000000000000
     0.000000000000000     0.000000000000000    -0.007523462686578
2 59
    -0.035678303677580    -0.073286956747199    -0.000000000000000
     0.033969933070410    -0.023769506516194     0.000000000000000
    -0.000000000000000     0.000000000000000     0.007876258537685
2 60
     0.000830483256741     0.023169548455445    -0.000000000000000
    -0.011630639967409     0.214362906990881     0.000000000000000
     0.000000000000000     0.000000000000000     0.008327167188470
2 61
    -0.078649544845746    -0.521358996704965    -0.000000000000000
    -0.338379081114005     0.018519275235861    -0.000000000000000
     0.000000000000000     0.000000000000000     0.627369022115980
2 62
    -0.009721827531396     0.048955894044230     0.000000000000000
    -0.058301109725527    -0.049725868710228     0.000000000000000
     0.000000000000000    -0.000000000000000     0.007876258537685
2 63
    -0.058580862249580     0.078690339714834    -0.000000000000000
     0.078690339714834     0.032282871514970    -0.000000000000000
     0.000000000000000     0.000000000000000     0.012974591604346
2 64
    -1.611636058725382    -0.431075963088103     0.000000000000000
    -2.160839148912960     0.272298914033285    -0.000000000000000
     0.000000000000000     0.000000000000000     0.322247901049866
2 65
    -1.321017057811447    -2.328628103615326     0.000000000000000
    -0.598864917790468    -0.018320086880650     0.000000000000000
    -0.000000000000000     0.000000000000000     0.322247901049866
2 66
    -0.105526298541522    -0.062310516063125    -0.000000000000000
    -0.062310516063125    -0.033576228398066     0.000000000000000
     0.000000000000000     0.000000000000000    -0.050233525530862
2 67
     0.205301090302382    -0.117858769790252     0.000000000000000
    -0.116351980533408     0.014105566676129     0.000000000000000
    -0.000000000000000    -0.000000000000000     0.034798023332036
2 68
    -0.021056989578289    -0.130519423226058    -0.000000000000000
    -0.130519423226058     0.129653842707644    -0.000000000000000
     0.000000000000000     0.000000000000000     0.012028788773536
2 69
    -0.039511881850366     0.024990845641570     0.000000000000000
     0.023483942432578     0.258918424876728     0.000000000000000
    -0.000000000000000     0.000000000000000     0.034798023332036
2 70
     0.096649540141847    -0.330399240073524     0.000000000000000
    -0.330399240073524     0.478161560522443    -0.000000000000000
    -0.000000000000000    -0.000000000000000    -0.253577373734209
2 71
     0.055217222736343    -0.031029397883776     0.000000000000000
     0.087601511663292     0.004165976589349     0.000000000000000
     0.000000000000000     0.000000000000000     0.000107001067245
2 72
     0.041425252372310     0.095564259881530     0.000000000000000
    -0.023066535713390     0.017957946953383    -0.000000000000000
    -0.000000000000000    -0.000000000000000     0.000107001067245
3 1
    -0.194877356240000    -0.208886250040000    -0.000000000000000
    -0.314076847600000     0.107055495060000     0.000000000000000
     0.000000000000000    -0.000000000000000     0.013006389770000
3 2
    -0.194877356240000    -0.314076847600000     0.000000000000000
    -0.208886250040000     0.107055495060000    -0.000000000000000