       N       E                     dE             d eps       ncg     rms          rms(c)
DAV:   1     0.753314282097E+04    0.75331E+04   -0.41361E+05  9924   0.112E+03
DAV:   2    -0.138110419122E+04   -0.89142E+04   -0.85210E+04 13500   0.281E+02
DAV:   3    -0.259550718789E+04   -0.12144E+04   -0.11962E+04 11088   0.107E+02
DAV:   4    -0.264213295277E+04   -0.46626E+02   -0.46407E+02 12096   0.245E+01
DAV:   5    -0.264382105817E+04   -0.16881E+01   -0.16862E+01 12744   0.400E+00    0.786E+01
DAV:   6    -0.248333772103E+04    0.16048E+03   -0.18526E+02 10464   0.130E+01    0.445E+01
DAV:   7    -0.242397819309E+04    0.59360E+02   -0.15157E+02 10140   0.114E+01    0.129E+01
DAV:   8    -0.242085226642E+04    0.31259E+01   -0.67878E+00 11076   0.267E+00    0.346E+00
