       N       E                     dE             d eps       ncg     rms          rms(c)
DAV:   1     0.753314282097E+04    0.75331E+04   -0.41361E+05  9924   0.112E+03
