 vasp.5.4.4.18Apr17-6-g9f103f2a35 (build Mar 30 2023 15:39:25) complex          
  
 executed on             LinuxIFC date 2023.06.21  14:30:07
 running on   12 total cores
 distrk:  each k-point on   12 cores,    1 groups
 distr:  one band on NCORES_PER_BAND=   1 cores,   12 groups


--------------------------------------------------------------------------------------------------------


 INCAR:
 POTCAR:    PAW_PBE B 06Sep2000                   
 POTCAR:    PAW_PBE C 08Apr2002                   

 ----------------------------------------------------------------------------- 
|                                                                             |
|           W    W    AA    RRRRR   N    N  II  N    N   GGGG   !!!           |
|           W    W   A  A   R    R  NN   N  II  NN   N  G    G  !!!           |
|           W    W  A    A  R    R  N N  N  II  N N  N  G       !!!           |
|           W WW W  AAAAAA  RRRRR   N  N N  II  N  N N  G  GGG   !            |
|           WW  WW  A    A  R   R   N   NN  II  N   NN  G    G                |
|           W    W  A    A  R    R  N    N  II  N    N   GGGG   !!!           |
|                                                                             |
|      For optimal performance we recommend to set                            |
|        NCORE= 4 - approx SQRT( number of cores)                             |
|      NCORE specifies how many cores store one orbital (NPAR=cpu/NCORE).     |
|      This setting can  greatly improve the performance of VASP for DFT.     |
|      The default,   NCORE=1            might be grossly inefficient         |
|      on modern multi-core architectures or massively parallel machines.     |
|      Do your own testing !!!!                                               |
|      Unfortunately you need to use the default for GW and RPA calculations. |
|      (for HF NCORE is supported but not extensively tested yet)             |
|                                                                             |
 ----------------------------------------------------------------------------- 

 POTCAR:    PAW_PBE B 06Sep2000                   
   SHA256 =  a32ced30f5ae56fd4d10b4325ff17eb3e4e38ee0f4288bc219fb012fddfa6e97 B/
   COPYR  = (c) Copyright 06Sep2000 Georg Kresse                                
   COPYR  = This file is part of the software VASP. Any use, copying, and all ot
   COPYR  = If you do not have a valid VASP license, you may not use, copy or di
   VRHFIN =B: s2p1                                                              
   LEXCH  = PE                                                                  
   EATOM  =    71.1703 eV,    5.2309 Ry                                         
                                                                                
   TITEL  = PAW_PBE B 06Sep2000                                                 
   LULTRA =        F    use ultrasoft PP ?                                      
   IUNSCR =        1    unscreen: 0-lin 1-nonlin 2-no                           
   RPACOR =    1.200    partial core radius                                     
   POMASS =   10.811; ZVAL   =    3.000    mass and valenz                      
   RCORE  =    1.700    outmost cutoff radius                                   
   RWIGS  =    1.710; RWIGS  =    0.905    wigner-seitz radius (au A)           
   ENMAX  =  318.614; ENMIN  =  238.960 eV                                      
   ICORE  =        2    local potential                                         
   LCOR   =        T    correct aug charges                                     
   LPAW   =        T    paw PP                                                  
   EAUG   =  535.514                                                            
   DEXC   =    0.000                                                            
   RMAX   =    1.732    core radius for proj-oper                               
   RAUG   =    1.300    factor for augmentation sphere                          
   RDEP   =    1.757    radius for radial grids                                 
   RDEPT  =    1.436    core radius for aug-charge                              
                                                                                
   Atomic configuration                                                         
    4 entries                                                                   
     n  l   j            E        occ.                                          
     1  0  0.50      -180.5896   2.0000                                         
     2  0  0.50        -9.4431   2.0000                                         
     2  1  0.50        -3.6068   1.0000                                         
     3  2  1.50        -4.0817   0.0000                                         
   Description                                                                  
     l       E           TYP  RCUT    TYP  RCUT                                 
     0     -9.4430752     23  1.500                                             
     0      0.8675899     23  1.500                                             
     1     -3.6067955     23  1.700                                             
     1      6.1086146     23  1.700                                             
     2     -4.0817478      7  1.700                                             
  local pseudopotential read in
  partial core-charges read in
  partial kinetic energy density read in
  atomic valenz-charges read in
  non local Contribution for L=           0  read in
    real space projection operators read in
  non local Contribution for L=           0  read in
    real space projection operators read in
  non local Contribution for L=           1  read in
    real space projection operators read in
  non local Contribution for L=           1  read in
    real space projection operators read in
    PAW grid and wavefunctions read in
 
   number of l-projection  operators is LMAX  =           4
   number of lm-projection operators is LMMAX =           8
 
 POTCAR:    PAW_PBE C 08Apr2002                   
   SHA256 =  253f7b50bb8d59471dbedb8285d89021f4a42ed1a2c5d38a03a736e69125dd95 C/
   COPYR  = (c) Copyright 08Apr2002 Georg Kresse                                
   COPYR  = This file is part of the software VASP. Any use, copying, and all ot
   COPYR  = If you do not have a valid VASP license, you may not use, copy or di
   VRHFIN =C: s2p2                                                              
   LEXCH  = PE                                                                  
   EATOM  =   147.1560 eV,   10.8157 Ry                                         
                                                                                
   TITEL  = PAW_PBE C 08Apr2002                                                 
   LULTRA =        F    use ultrasoft PP ?                                      
   IUNSCR =        1    unscreen: 0-lin 1-nonlin 2-no                           
   RPACOR =    1.200    partial core radius                                     
   POMASS =   12.011; ZVAL   =    4.000    mass and valenz                      
   RCORE  =    1.500    outmost cutoff radius                                   
   RWIGS  =    1.630; RWIGS  =    0.863    wigner-seitz radius (au A)           
   ENMAX  =  400.000; ENMIN  =  300.000 eV                                      
   ICORE  =        2    local potential                                         
   LCOR   =        T    correct aug charges                                     
   LPAW   =        T    paw PP                                                  
   EAUG   =  644.873                                                            
   DEXC   =    0.000                                                            
   RMAX   =    1.529    core radius for proj-oper                               
   RAUG   =    1.300    factor for augmentation sphere                          
   RDEP   =    1.501    radius for radial grids                                 
   RDEPT  =    1.300    core radius for aug-charge                              
                                                                                
   Atomic configuration                                                         
    4 entries                                                                   
     n  l   j            E        occ.                                          
     1  0  0.50      -273.3789   2.0000                                         
     2  0  0.50       -13.7508   2.0000                                         
     2  1  0.50        -5.2854   2.0000                                         
     3  2  1.50        -5.4423   0.0000                                         
   Description                                                                  
     l       E           TYP  RCUT    TYP  RCUT                                 
     0    -13.7508458     23  1.200                                             
     0     -8.2022199     23  1.200                                             
     1     -5.2854383     23  1.500                                             
     1     34.0145650     23  1.500                                             
     2     -5.4423304      7  1.500                                             
  local pseudopotential read in
  partial core-charges read in
  partial kinetic energy density read in
  atomic valenz-charges read in
  non local Contribution for L=           0  read in
    real space projection operators read in
  non local Contribution for L=           0  read in
    real space projection operators read in
  non local Contribution for L=           1  read in
    real space projection operators read in
  non local Contribution for L=           1  read in
    real space projection operators read in
    PAW grid and wavefunctions read in
 
   number of l-projection  operators is LMAX  =           4
   number of lm-projection operators is LMMAX =           8
 

 ----------------------------------------------------------------------------- 
|                                                                             |
|  ADVICE TO THIS USER RUNNING 'VASP/VAMP'   (HEAR YOUR MASTER'S VOICE ...):  |
|                                                                             |
|      You have a (more or less) 'large supercell' and for larger cells       |
|      it might be more efficient to use real space projection opertators     |
|      So try LREAL= Auto  in the INCAR   file.                               |
|      Mind:          For very  accurate calculation you might also keep the  |
|      reciprocal projection scheme          (i.e. LREAL=.FALSE.)             |
|                                                                             |
 ----------------------------------------------------------------------------- 

  PAW_PBE B 06Sep2000                   :
 energy of atom  1       EATOM=  -71.1703
 kinetic energy error for atom=    0.0015 (will be added to EATOM!!)
  PAW_PBE C 08Apr2002                   :
 energy of atom  2       EATOM= -147.1560
 kinetic energy error for atom=    0.0116 (will be added to EATOM!!)
 
 
 POSCAR: generated by phonopy                    
  positions in direct lattice
  No initial velocities read in
 exchange correlation table for  LEXCH =        8
   RHO(1)=    0.500       N(1)  =     2000
   RHO(2)=  100.500       N(2)  =     4000
 


--------------------------------------------------------------------------------------------------------


 ion  position               nearest neighbor table
   1  0.056  0.111  0.250-  73 1.57 217 1.57 145 1.57
   2  0.222  0.111  0.250- 218 1.57  74 1.57 146 1.57
   3  0.389  0.111  0.250-  75 1.57 219 1.57 147 1.57
   4  0.556  0.111  0.250-  76 1.57 220 1.57 148 1.57
   5  0.722  0.111  0.250- 221 1.57  77 1.57 149 1.57
   6  0.889  0.111  0.250-  78 1.57 222 1.57 150 1.57
   7  0.056  0.278  0.250-  79 1.57 223 1.57 151 1.57
   8  0.222  0.278  0.250-  80 1.57 224 1.57 152 1.57
   9  0.389  0.278  0.250-  81 1.57 225 1.57 153 1.57
  10  0.556  0.278  0.250-  82 1.57 226 1.57 154 1.57
  11  0.722  0.278  0.250-  83 1.57 227 1.57 155 1.57
  12  0.889  0.278  0.250-  84 1.57 228 1.57 156 1.57
  13  0.056  0.444  0.250-  85 1.57 229 1.57 157 1.57
  14  0.222  0.444  0.250- 230 1.57  86 1.57 158 1.57
  15  0.389  0.444  0.250-  87 1.57 231 1.57 159 1.57
  16  0.556  0.444  0.250-  88 1.57 232 1.57 160 1.57
  17  0.722  0.444  0.250- 233 1.57  89 1.57 161 1.57
  18  0.889  0.444  0.250-  90 1.57 234 1.57 162 1.57
  19  0.056  0.611  0.250-  91 1.57 235 1.57 163 1.57
  20  0.222  0.611  0.250- 236 1.57  92 1.57 164 1.57
  21  0.389  0.611  0.250-  93 1.57 237 1.57 165 1.57
  22  0.556  0.611  0.250-  94 1.57 238 1.57 166 1.57
  23  0.722  0.611  0.250- 239 1.57  95 1.57 167 1.57
  24  0.889  0.611  0.250-  96 1.57 240 1.57 168 1.57
  25  0.056  0.778  0.250-  97 1.57 241 1.57 169 1.57
  26  0.222  0.778  0.250-  98 1.57 242 1.57 170 1.57
  27  0.389  0.778  0.250-  99 1.57 243 1.57 171 1.57
  28  0.556  0.778  0.250- 100 1.57 244 1.57 172 1.57
  29  0.722  0.778  0.250- 101 1.57 245 1.57 173 1.57
  30  0.889  0.778  0.250- 102 1.57 246 1.57 174 1.57
  31  0.056  0.944  0.250- 103 1.57 247 1.57 175 1.57
  32  0.222  0.944  0.250- 248 1.57 104 1.57 176 1.57
  33  0.389  0.944  0.250- 105 1.57 249 1.57 177 1.57
  34  0.556  0.944  0.250- 106 1.57 250 1.57 178 1.57
  35  0.722  0.944  0.250- 251 1.57 107 1.57 179 1.57
  36  0.889  0.944  0.250- 108 1.57 252 1.57 180 1.57
  37  0.111  0.056  0.250- 109 1.57 253 1.57 181 1.57
  38  0.278  0.056  0.250- 110 1.57 254 1.57 182 1.57
  39  0.444  0.056  0.250- 111 1.57 255 1.57 183 1.57
  40  0.611  0.056  0.250- 112 1.57 256 1.57 184 1.57
  41  0.778  0.056  0.250- 113 1.57 257 1.57 185 1.57
  42  0.944  0.056  0.250- 114 1.57 258 1.57 186 1.57
  43  0.111  0.222  0.250- 259 1.57 115 1.57 187 1.57
  44  0.278  0.222  0.250- 116 1.57 260 1.57 188 1.57
  45  0.444  0.222  0.250- 261 1.57 117 1.57 189 1.57
  46  0.611  0.222  0.250- 262 1.57 118 1.57 190 1.57
  47  0.778  0.222  0.250- 119 1.57 263 1.57 191 1.57
  48  0.944  0.222  0.250- 264 1.57 120 1.57 192 1.57
  49  0.111  0.389  0.250- 121 1.57 265 1.57 193 1.57
  50  0.278  0.389  0.250- 122 1.57 266 1.57 194 1.57
  51  0.444  0.389  0.250- 123 1.57 267 1.57 195 1.57
  52  0.611  0.389  0.250- 124 1.57 268 1.57 196 1.57
  53  0.778  0.389  0.250- 125 1.57 269 1.57 197 1.57
  54  0.944  0.389  0.250- 126 1.57 270 1.57 198 1.57
  55  0.111  0.556  0.250- 127 1.57 271 1.57 199 1.57
  56  0.278  0.556  0.250- 128 1.57 272 1.57 200 1.57
  57  0.444  0.556  0.250- 129 1.57 273 1.57 201 1.57
  58  0.611  0.556  0.250- 130 1.57 274 1.57 202 1.57
  59  0.778  0.556  0.250- 131 1.57 275 1.57 203 1.57
  60  0.944  0.556  0.250- 132 1.57 276 1.57 204 1.57
  61  0.111  0.722  0.250- 277 1.57 133 1.57 205 1.57
  62  0.278  0.722  0.250- 134 1.57 278 1.57 206 1.57
  63  0.444  0.722  0.250- 279 1.57 135 1.57 207 1.57
  64  0.611  0.722  0.250- 280 1.57 136 1.57 208 1.57
  65  0.778  0.722  0.250- 137 1.57 281 1.57 209 1.57
  66  0.944  0.722  0.250- 282 1.57 138 1.57 210 1.57
  67  0.111  0.889  0.250- 139 1.57 283 1.57 211 1.57
  68  0.278  0.889  0.250- 140 1.57 284 1.57 212 1.57
  69  0.444  0.889  0.250- 141 1.57 285 1.57 213 1.57
  70  0.611  0.889  0.250- 142 1.57 286 1.57 214 1.57
  71  0.778  0.889  0.250- 143 1.57 287 1.57 215 1.57
  72  0.944  0.889  0.250- 144 1.57 288 1.57 216 1.57
  73  0.026  0.053  0.250- 186 1.42 109 1.42   1 1.57
  74  0.193  0.053  0.250- 181 1.42 110 1.42   2 1.57
  75  0.360  0.053  0.250- 182 1.42 111 1.42   3 1.57
  76  0.526  0.053  0.250- 183 1.42 112 1.42   4 1.57
  77  0.693  0.053  0.250- 184 1.42 113 1.42   5 1.57
  78  0.860  0.053  0.250- 185 1.42 114 1.42   6 1.57
  79  0.026  0.220  0.250- 192 1.42 115 1.42   7 1.57
  80  0.193  0.220  0.250- 187 1.42 116 1.42   8 1.57
  81  0.360  0.220  0.250- 188 1.42 117 1.42   9 1.57
  82  0.526  0.220  0.250- 189 1.42 118 1.42  10 1.57
  83  0.693  0.220  0.250- 190 1.42 119 1.42  11 1.57
  84  0.860  0.220  0.250- 191 1.42 120 1.42  12 1.57
  85  0.026  0.386  0.250- 198 1.42 121 1.42  13 1.57
  86  0.193  0.386  0.250- 193 1.42 122 1.42  14 1.57
  87  0.360  0.386  0.250- 194 1.42 123 1.42  15 1.57
  88  0.526  0.386  0.250- 195 1.42 124 1.42  16 1.57
  89  0.693  0.386  0.250- 196 1.42 125 1.42  17 1.57
  90  0.860  0.386  0.250- 197 1.42 126 1.42  18 1.57
  91  0.026  0.553  0.250- 204 1.42 127 1.42  19 1.57
  92  0.193  0.553  0.250- 199 1.42 128 1.42  20 1.57
  93  0.360  0.553  0.250- 200 1.42 129 1.42  21 1.57
  94  0.526  0.553  0.250- 201 1.42 130 1.42  22 1.57
  95  0.693  0.553  0.250- 202 1.42 131 1.42  23 1.57
  96  0.860  0.553  0.250- 203 1.42 132 1.42  24 1.57
  97  0.026  0.720  0.250- 210 1.42 133 1.42  25 1.57
  98  0.193  0.720  0.250- 205 1.42 134 1.42  26 1.57
  99  0.360  0.720  0.250- 206 1.42 135 1.42  27 1.57
 100  0.526  0.720  0.250- 207 1.42 136 1.42  28 1.57
 101  0.693  0.720  0.250- 208 1.42 137 1.42  29 1.57
 102  0.860  0.720  0.250- 209 1.42 138 1.42  30 1.57
 103  0.026  0.886  0.250- 216 1.42 139 1.42  31 1.57
 104  0.193  0.886  0.250- 211 1.42 140 1.42  32 1.57
 105  0.360  0.886  0.250- 212 1.42 141 1.42  33 1.57
 106  0.526  0.886  0.250- 213 1.42 142 1.42  34 1.57
 107  0.693  0.886  0.250- 214 1.42 143 1.42  35 1.57
 108  0.860  0.886  0.250- 215 1.42 144 1.42  36 1.57
 109  0.053  0.026  0.250- 175 1.42  73 1.42  37 1.57
 110  0.220  0.026  0.250- 176 1.42  74 1.42  38 1.57
 111  0.386  0.026  0.250- 177 1.42  75 1.42  39 1.57
 112  0.553  0.026  0.250- 178 1.42  76 1.42  40 1.57
 113  0.720  0.026  0.250- 179 1.42  77 1.42  41 1.57
 114  0.886  0.026  0.250- 180 1.42  78 1.42  42 1.57
 115  0.053  0.193  0.250- 145 1.42  79 1.42  43 1.57
 116  0.220  0.193  0.250- 146 1.42  80 1.42  44 1.57
 117  0.386  0.193  0.250- 147 1.42  81 1.42  45 1.57
 118  0.553  0.193  0.250- 148 1.42  82 1.42  46 1.57
 119  0.720  0.193  0.250- 149 1.42  83 1.42  47 1.57
 120  0.886  0.193  0.250- 150 1.42  84 1.42  48 1.57
 121  0.053  0.360  0.250- 151 1.42  85 1.42  49 1.57
 122  0.220  0.360  0.250- 152 1.42  86 1.42  50 1.57
 123  0.386  0.360  0.250- 153 1.42  87 1.42  51 1.57
 124  0.553  0.360  0.250- 154 1.42  88 1.42  52 1.57
 125  0.720  0.360  0.250- 155 1.42  89 1.42  53 1.57
 126  0.886  0.360  0.250- 156 1.42  90 1.42  54 1.57
 127  0.053  0.526  0.250- 157 1.42  91 1.42  55 1.57
 128  0.220  0.526  0.250- 158 1.42  92 1.42  56 1.57
 129  0.386  0.526  0.250- 159 1.42  93 1.42  57 1.57
 130  0.553  0.526  0.250- 160 1.42  94 1.42  58 1.57
 131  0.720  0.526  0.250- 161 1.42  95 1.42  59 1.57
 132  0.886  0.526  0.250- 162 1.42  96 1.42  60 1.57
 133  0.053  0.693  0.250- 163 1.42  97 1.42  61 1.57
 134  0.220  0.693  0.250- 164 1.42  98 1.42  62 1.57
 135  0.386  0.693  0.250- 165 1.42  99 1.42  63 1.57
 136  0.553  0.693  0.250- 166 1.42 100 1.42  64 1.57
 137  0.720  0.693  0.250- 167 1.42 101 1.42  65 1.57
 138  0.886  0.693  0.250- 168 1.42 102 1.42  66 1.57
 139  0.053  0.860  0.250- 169 1.42 103 1.42  67 1.57
 140  0.220  0.860  0.250- 170 1.42 104 1.42  68 1.57
 141  0.386  0.860  0.250- 171 1.42 105 1.42  69 1.57
 142  0.553  0.860  0.250- 172 1.42 106 1.42  70 1.57
 143  0.720  0.860  0.250- 173 1.42 107 1.42  71 1.57
 144  0.886  0.860  0.250- 174 1.42 108 1.42  72 1.57
 145  0.026  0.140  0.250- 115 1.42 258 1.42   1 1.57
 146  0.193  0.140  0.250- 116 1.42 253 1.42   2 1.57
 147  0.360  0.140  0.250- 117 1.42 254 1.42   3 1.57
 148  0.526  0.140  0.250- 118 1.42 255 1.42   4 1.57
 149  0.693  0.140  0.250- 119 1.42 256 1.42   5 1.57
 150  0.860  0.140  0.250- 120 1.42 257 1.42   6 1.57
 151  0.026  0.307  0.250- 264 1.42 121 1.42   7 1.57
 152  0.193  0.307  0.250- 122 1.42 259 1.42   8 1.57
 153  0.360  0.307  0.250- 260 1.42 123 1.42   9 1.57
 154  0.526  0.307  0.250- 261 1.42 124 1.42  10 1.57
 155  0.693  0.307  0.250- 125 1.42 262 1.42  11 1.57
 156  0.860  0.307  0.250- 263 1.42 126 1.42  12 1.57
 157  0.026  0.474  0.250- 127 1.42 270 1.42  13 1.57
 158  0.193  0.474  0.250- 128 1.42 265 1.42  14 1.57
 159  0.360  0.474  0.250- 129 1.42 266 1.42  15 1.57
 160  0.526  0.474  0.250- 130 1.42 267 1.42  16 1.57
 161  0.693  0.474  0.250- 131 1.42 268 1.42  17 1.57
 162  0.860  0.474  0.250- 132 1.42 269 1.42  18 1.57
 163  0.026  0.640  0.250- 133 1.42 276 1.42  19 1.57
 164  0.193  0.640  0.250- 134 1.42 271 1.42  20 1.57
 165  0.360  0.640  0.250- 135 1.42 272 1.42  21 1.57
 166  0.526  0.640  0.250- 136 1.42 273 1.42  22 1.57
 167  0.693  0.640  0.250- 137 1.42 274 1.42  23 1.57
 168  0.860  0.640  0.250- 138 1.42 275 1.42  24 1.57
 169  0.026  0.807  0.250- 282 1.42 139 1.42  25 1.57
 170  0.193  0.807  0.250- 140 1.42 277 1.42  26 1.57
 171  0.360  0.807  0.250- 278 1.42 141 1.42  27 1.57
 172  0.526  0.807  0.250- 279 1.42 142 1.42  28 1.57
 173  0.693  0.807  0.250- 143 1.42 280 1.42  29 1.57
 174  0.860  0.807  0.250- 281 1.42 144 1.42  30 1.57
 175  0.026  0.974  0.250- 109 1.42 288 1.42  31 1.57
 176  0.193  0.974  0.250- 110 1.42 283 1.42  32 1.57
 177  0.360  0.974  0.250- 111 1.42 284 1.42  33 1.57
 178  0.526  0.974  0.250- 112 1.42 285 1.42  34 1.57
 179  0.693  0.974  0.250- 113 1.42 286 1.42  35 1.57
 180  0.860  0.974  0.250- 114 1.42 287 1.42  36 1.57
 181  0.140  0.026  0.250-  74 1.42 247 1.42  37 1.57
 182  0.307  0.026  0.250- 248 1.42  75 1.42  38 1.57
 183  0.474  0.026  0.250-  76 1.42 249 1.42  39 1.57
 184  0.640  0.026  0.250-  77 1.42 250 1.42  40 1.57
 185  0.807  0.026  0.250- 251 1.42  78 1.42  41 1.57
 186  0.974  0.026  0.250-  73 1.42 252 1.42  42 1.57
 187  0.140  0.193  0.250-  80 1.42 217 1.42  43 1.57
 188  0.307  0.193  0.250-  81 1.42 218 1.42  44 1.57
 189  0.474  0.193  0.250-  82 1.42 219 1.42  45 1.57
 190  0.640  0.193  0.250-  83 1.42 220 1.42  46 1.57
 191  0.807  0.193  0.250-  84 1.42 221 1.42  47 1.57
 192  0.974  0.193  0.250-  79 1.42 222 1.42  48 1.57
 193  0.140  0.360  0.250-  86 1.42 223 1.42  49 1.57
 194  0.307  0.360  0.250- 224 1.42  87 1.42  50 1.57
 195  0.474  0.360  0.250-  88 1.42 225 1.42  51 1.57
 196  0.640  0.360  0.250-  89 1.42 226 1.42  52 1.57
 197  0.807  0.360  0.250- 227 1.42  90 1.42  53 1.57
 198  0.974  0.360  0.250-  85 1.42 228 1.42  54 1.57
 199  0.140  0.526  0.250-  92 1.42 229 1.42  55 1.57
 200  0.307  0.526  0.250- 230 1.42  93 1.42  56 1.57
 201  0.474  0.526  0.250-  94 1.42 231 1.42  57 1.57
 202  0.640  0.526  0.250-  95 1.42 232 1.42  58 1.57
 203  0.807  0.526  0.250- 233 1.42  96 1.42  59 1.57
 204  0.974  0.526  0.250-  91 1.42 234 1.42  60 1.57
 205  0.140  0.693  0.250-  98 1.42 235 1.42  61 1.57
 206  0.307  0.693  0.250-  99 1.42 236 1.42  62 1.57
 207  0.474  0.693  0.250- 100 1.42 237 1.42  63 1.57
 208  0.640  0.693  0.250- 101 1.42 238 1.42  64 1.57
 209  0.807  0.693  0.250- 102 1.42 239 1.42  65 1.57
 210  0.974  0.693  0.250-  97 1.42 240 1.42  66 1.57
 211  0.140  0.860  0.250- 104 1.42 241 1.42  67 1.57
 212  0.307  0.860  0.250- 242 1.42 105 1.42  68 1.57
 213  0.474  0.860  0.250- 106 1.42 243 1.42  69 1.57
 214  0.640  0.860  0.250- 107 1.42 244 1.42  70 1.57
 215  0.807  0.860  0.250- 245 1.42 108 1.42  71 1.57
 216  0.974  0.860  0.250- 103 1.42 246 1.42  72 1.57
 217  0.114  0.140  0.250- 187 1.42 253 1.42   1 1.57
 218  0.280  0.140  0.250- 188 1.42 254 1.42   2 1.57
 219  0.447  0.140  0.250- 189 1.42 255 1.42   3 1.57
 220  0.614  0.140  0.250- 190 1.42 256 1.42   4 1.57
 221  0.780  0.140  0.250- 191 1.42 257 1.42   5 1.57
 222  0.947  0.140  0.250- 192 1.42 258 1.42   6 1.57
 223  0.114  0.307  0.250- 193 1.42 259 1.42   7 1.57
 224  0.280  0.307  0.250- 194 1.42 260 1.42   8 1.57
 225  0.447  0.307  0.250- 195 1.42 261 1.42   9 1.57
 226  0.614  0.307  0.250- 196 1.42 262 1.42  10 1.57
 227  0.780  0.307  0.250- 197 1.42 263 1.42  11 1.57
 228  0.947  0.307  0.250- 198 1.42 264 1.42  12 1.57
 229  0.114  0.474  0.250- 199 1.42 265 1.42  13 1.57
 230  0.280  0.474  0.250- 200 1.42 266 1.42  14 1.57
 231  0.447  0.474  0.250- 201 1.42 267 1.42  15 1.57
 232  0.614  0.474  0.250- 202 1.42 268 1.42  16 1.57
 233  0.780  0.474  0.250- 203 1.42 269 1.42  17 1.57
 234  0.947  0.474  0.250- 204 1.42 270 1.42  18 1.57
 235  0.114  0.640  0.250- 205 1.42 271 1.42  19 1.57
 236  0.280  0.640  0.250- 206 1.42 272 1.42  20 1.57
 237  0.447  0.640  0.250- 207 1.42 273 1.42  21 1.57
 238  0.614  0.640  0.250- 208 1.42 274 1.42  22 1.57
 239  0.780  0.640  0.250- 209 1.42 275 1.42  23 1.57
 240  0.947  0.640  0.250- 210 1.42 276 1.42  24 1.57
 241  0.114  0.807  0.250- 211 1.42 277 1.42  25 1.57
 242  0.280  0.807  0.250- 212 1.42 278 1.42  26 1.57
 243  0.447  0.807  0.250- 213 1.42 279 1.42  27 1.57
 244  0.614  0.807  0.250- 214 1.42 280 1.42  28 1.57
 245  0.780  0.807  0.250- 215 1.42 281 1.42  29 1.57
 246  0.947  0.807  0.250- 216 1.42 282 1.42  30 1.57
 247  0.114  0.974  0.250- 181 1.42 283 1.42  31 1.57
 248  0.280  0.974  0.250- 182 1.42 284 1.42  32 1.57
 249  0.447  0.974  0.250- 183 1.42 285 1.42  33 1.57
 250  0.614  0.974  0.250- 184 1.42 286 1.42  34 1.57
 251  0.780  0.974  0.250- 185 1.42 287 1.42  35 1.57
 252  0.947  0.974  0.250- 186 1.42 288 1.42  36 1.57
 253  0.140  0.114  0.250- 146 1.42 217 1.42  37 1.57
 254  0.307  0.114  0.250- 147 1.42 218 1.42  38 1.57
 255  0.474  0.114  0.250- 148 1.42 219 1.42  39 1.57
 256  0.640  0.114  0.250- 149 1.42 220 1.42  40 1.57
 257  0.807  0.114  0.250- 150 1.42 221 1.42  41 1.57
 258  0.974  0.114  0.250- 145 1.42 222 1.42  42 1.57
 259  0.140  0.280  0.250- 152 1.42 223 1.42  43 1.57
 260  0.307  0.280  0.250- 153 1.42 224 1.42  44 1.57
 261  0.474  0.280  0.250- 154 1.42 225 1.42  45 1.57
 262  0.640  0.280  0.250- 155 1.42 226 1.42  46 1.57
 263  0.807  0.280  0.250- 156 1.42 227 1.42  47 1.57
 264  0.974  0.280  0.250- 151 1.42 228 1.42  48 1.57
 265  0.140  0.447  0.250- 158 1.42 229 1.42  49 1.57
 266  0.307  0.447  0.250- 159 1.42 230 1.42  50 1.57
 267  0.474  0.447  0.250- 160 1.42 231 1.42  51 1.57
 268  0.640  0.447  0.250- 161 1.42 232 1.42  52 1.57
 269  0.807  0.447  0.250- 162 1.42 233 1.42  53 1.57
 270  0.974  0.447  0.250- 157 1.42 234 1.42  54 1.57
 271  0.140  0.614  0.250- 164 1.42 235 1.42  55 1.57
 272  0.307  0.614  0.250- 165 1.42 236 1.42  56 1.57
 273  0.474  0.614  0.250- 166 1.42 237 1.42  57 1.57
 274  0.640  0.614  0.250- 167 1.42 238 1.42  58 1.57
 275  0.807  0.614  0.250- 168 1.42 239 1.42  59 1.57
 276  0.974  0.614  0.250- 163 1.42 240 1.42  60 1.57
 277  0.140  0.780  0.250- 170 1.42 241 1.42  61 1.57
 278  0.307  0.780  0.250- 171 1.42 242 1.42  62 1.57
 279  0.474  0.780  0.250- 172 1.42 243 1.42  63 1.57
 280  0.640  0.780  0.250- 173 1.42 244 1.42  64 1.57
 281  0.807  0.780  0.250- 174 1.42 245 1.42  65 1.57
 282  0.974  0.780  0.250- 169 1.42 246 1.42  66 1.57
 283  0.140  0.947  0.250- 176 1.42 247 1.42  67 1.57
 284  0.307  0.947  0.250- 177 1.42 248 1.42  68 1.57
 285  0.474  0.947  0.250- 178 1.42 249 1.42  69 1.57
 286  0.640  0.947  0.250- 179 1.42 250 1.42  70 1.57
 287  0.807  0.947  0.250- 180 1.42 251 1.42  71 1.57
 288  0.974  0.947  0.250- 175 1.42 252 1.42  72 1.57
 
  LATTYP: Found a hexagonal cell.
 ALAT       =    31.0442262209
 C/A-ratio  =     0.2744543008
  
  Lattice vectors:
  
 A1 = (  26.8850906042,  15.5221131104,   0.0000000000)
 A2 = ( -26.8850906042,  15.5221131104,   0.0000000000)
 A3 = (   0.0000000000,   0.0000000000,   8.5202213998)


Analysis of symmetry for initial positions (statically):
=====================================================================
 Subroutine PRICEL returns following result:
 
  LATTYP: Found a hexagonal cell.
 ALAT       =     5.1740377035
 C/A-ratio  =     1.6467258045
  
  Lattice vectors:
  
 A1 = (   4.4808484340,   2.5870188517,   0.0000000000)
 A2 = (  -4.4808484340,   2.5870188517,   0.0000000000)
 A3 = (   0.0000000000,   0.0000000000,   8.5202213998)
 
  36 primitive cells build up your supercell.
 

 Routine SETGRP: Setting up the symmetry group for a 
 hexagonal supercell.


 Subroutine GETGRP returns: Found 24 space group operations
 (whereof 12 operations were pure point group operations)
 out of a pool of 24 trial point group operations.


The static configuration has the point symmetry C_6v.
 The point group associated with its full space group is D_6h.


Analysis of symmetry for dynamics (positions and initial velocities):
=====================================================================
 Subroutine PRICEL returns following result:
 
  LATTYP: Found a hexagonal cell.
 ALAT       =     5.1740377035
 C/A-ratio  =     1.6467258045
  
  Lattice vectors:
  
 A1 = (   4.4808484340,   2.5870188517,   0.0000000000)
 A2 = (  -4.4808484340,   2.5870188517,   0.0000000000)
 A3 = (   0.0000000000,   0.0000000000,   8.5202213998)
 
  36 primitive cells build up your supercell.
 

 Routine SETGRP: Setting up the symmetry group for a 
 hexagonal supercell.


 Subroutine GETGRP returns: Found 24 space group operations
 (whereof 12 operations were pure point group operations)
 out of a pool of 24 trial point group operations.


The dynamic configuration has the point symmetry C_6v.
 The point group associated with its full space group is D_6h.


 Subroutine INISYM returns: Found 24 space group operations
 (whereof 12 operations are pure point group operations),
 and found    36 'primitive' translations

 
 
 KPOINTS: K-points for BC3                        

Automatic generation of k-mesh.
Space group operators:
 irot       det(A)        alpha          n_x          n_y          n_z        tau_x        tau_y        tau_z
    1     1.000000     0.000001     1.000000     0.000000     0.000000     0.000000     0.000000     0.000000
    2     1.000000    60.000000     0.000000     0.000000    -1.000000     0.000000     0.000000     0.000000
    3     1.000000   120.000000     0.000000     0.000000    -1.000000     0.000000     0.000000     0.000000
    4     1.000000   180.000000     0.000000     0.000000     1.000000     0.000000     0.000000     0.000000
    5     1.000000   120.000000     0.000000     0.000000     1.000000     0.000000     0.000000     0.000000
    6     1.000000    60.000000     0.000000     0.000000     1.000000     0.000000     0.000000     0.000000
    7    -1.000000   179.999999     0.866025     0.500000     0.000000     0.000000     0.000000     0.000000
    8    -1.000000   179.999999     1.000000     0.000000     0.000000     0.000000     0.000000     0.000000
    9    -1.000000   179.999999     0.866025    -0.500000     0.000000     0.000000     0.000000     0.000000
   10    -1.000000   179.999999     0.500000    -0.866025     0.000000     0.000000     0.000000     0.000000
   11    -1.000000   179.999999     0.000000     1.000000     0.000000     0.000000     0.000000     0.000000
   12    -1.000000   179.999999    -0.500000    -0.866025     0.000000     0.000000     0.000000     0.000000
   13    -1.000000     0.000001     1.000000     0.000000     0.000000     0.000000     0.000000     0.500000
   14    -1.000000    60.000000     0.000000     0.000000    -1.000000     0.000000     0.000000     0.500000
   15    -1.000000   120.000000     0.000000     0.000000    -1.000000     0.000000     0.000000     0.500000
   16    -1.000000   180.000000     0.000000     0.000000     1.000000     0.000000     0.000000     0.500000
   17    -1.000000   120.000000     0.000000     0.000000     1.000000     0.000000     0.000000     0.500000
   18    -1.000000    60.000000     0.000000     0.000000     1.000000     0.000000     0.000000     0.500000
   19     1.000000   179.999999     0.866025     0.500000     0.000000     0.000000     0.000000     0.500000
   20     1.000000   179.999999     1.000000     0.000000     0.000000     0.000000     0.000000     0.500000
   21     1.000000   179.999999     0.866025    -0.500000     0.000000     0.000000     0.000000     0.500000
   22     1.000000   179.999999     0.500000    -0.866025     0.000000     0.000000     0.000000     0.500000
   23     1.000000   179.999999     0.000000     1.000000     0.000000     0.000000     0.000000     0.500000
   24     1.000000   179.999999    -0.500000    -0.866025     0.000000     0.000000     0.000000     0.500000
 
 Subroutine IBZKPT returns following result:
 ===========================================
 
 Found      7 irreducible k-points:
 
 Following reciprocal coordinates:
            Coordinates               Weight
  0.000000  0.000000  0.000000      1.000000
  0.166667 -0.000000  0.000000      6.000000
  0.333333  0.000000  0.000000      6.000000
  0.500000 -0.000000  0.000000      3.000000
  0.166667  0.166667  0.000000      6.000000
  0.333333  0.166667  0.000000     12.000000
  0.333333  0.333333  0.000000      2.000000
 
 Following cartesian coordinates:
            Coordinates               Weight
  0.000000  0.000000  0.000000      1.000000
  0.003100  0.005369  0.000000      6.000000
  0.006199  0.010737  0.000000      6.000000
  0.009299  0.016106  0.000000      3.000000
  0.000000  0.010737  0.000000      6.000000
  0.003100  0.016106  0.000000     12.000000
  0.000000  0.021475  0.000000      2.000000
 
 
 Subroutine IBZKPT_HF returns following result:
 ==============================================
 
 Found     36 k-points in 1st BZ
 the following     36 k-points will be used (e.g. in the exchange kernel)
 Following reciprocal coordinates:   # in IRBZ
  0.000000  0.000000  0.000000    0.02777778   1 t-inv F
  0.166667 -0.000000  0.000000    0.02777778   2 t-inv F
  0.333333  0.000000  0.000000    0.02777778   3 t-inv F
  0.500000 -0.000000  0.000000    0.02777778   4 t-inv F
  0.166667  0.166667  0.000000    0.02777778   5 t-inv F
  0.333333  0.166667  0.000000    0.02777778   6 t-inv F
  0.333333  0.333333  0.000000    0.02777778   7 t-inv F
  0.000000  0.166667  0.000000    0.02777778   2 t-inv F
 -0.166667  0.166667  0.000000    0.02777778   2 t-inv F
 -0.166667  0.000000  0.000000    0.02777778   2 t-inv F
 -0.000000 -0.166667  0.000000    0.02777778   2 t-inv F
  0.166667 -0.166667  0.000000    0.02777778   2 t-inv F
  0.000000  0.333333  0.000000    0.02777778   3 t-inv F
 -0.333333  0.333333  0.000000    0.02777778   3 t-inv F
 -0.333333  0.000000  0.000000    0.02777778   3 t-inv F
  0.000000 -0.333333  0.000000    0.02777778   3 t-inv F
  0.333333 -0.333333  0.000000    0.02777778   3 t-inv F
  0.000000  0.500000  0.000000    0.02777778   4 t-inv F
 -0.500000  0.500000  0.000000    0.02777778   4 t-inv F
 -0.166667  0.333333  0.000000    0.02777778   5 t-inv F
 -0.333333  0.166667  0.000000    0.02777778   5 t-inv F
 -0.166667 -0.166667  0.000000    0.02777778   5 t-inv F
  0.166667 -0.333333  0.000000    0.02777778   5 t-inv F
  0.333333 -0.166667  0.000000    0.02777778   5 t-inv F
 -0.166667  0.500000  0.000000    0.02777778   6 t-inv F
 -0.500000  0.333333  0.000000    0.02777778   6 t-inv F
 -0.333333 -0.166667  0.000000    0.02777778   6 t-inv F
  0.166667 -0.500000  0.000000    0.02777778   6 t-inv F
  0.500000 -0.333333  0.000000    0.02777778   6 t-inv F
 -0.333333  0.500000  0.000000    0.02777778   6 t-inv F
  0.166667  0.333333  0.000000    0.02777778   6 t-inv F
  0.500000 -0.166667  0.000000    0.02777778   6 t-inv F
  0.333333 -0.500000  0.000000    0.02777778   6 t-inv F
 -0.166667 -0.333333  0.000000    0.02777778   6 t-inv F
 -0.500000  0.166667  0.000000    0.02777778   6 t-inv F
 -0.333333  0.666667  0.000000    0.02777778   7 t-inv F


--------------------------------------------------------------------------------------------------------




 Dimension of arrays:
   k-points           NKPTS =      7   k-points in BZ     NKDIM =      7   number of bands    NBANDS=    696
   number of dos      NEDOS =    301   number of ions     NIONS =    288
   non local maximal  LDIM  =      4   non local SUM 2l+1 LMDIM =      8
   total plane-waves  NPLWV = ******
   max r-space proj   IRMAX =      1   max aug-charges    IRDMAX=   6338
   dimension x,y,z NGX =   216 NGY =  216 NGZ =   60
   dimension x,y,z NGXF=   432 NGYF=  432 NGZF=  120
   support grid    NGXF=   432 NGYF=  432 NGZF=  120
   ions per type =              72 216
   NGX,Y,Z   is equivalent  to a cutoff of  11.57, 11.57, 11.71 a.u.
   NGXF,Y,Z  is equivalent  to a cutoff of  23.13, 23.13, 23.41 a.u.

 SYSTEM =  BC3                                     
 POSCAR =  generated by phonopy                    

 Startparameter for this run:
   NWRITE =      2    write-flag & timer
   PREC   = accura    normal or accurate (medium, high low for compatibility)
   ISTART =      0    job   : 0-new  1-cont  2-samecut
   ICHARG =      2    charge: 1-file 2-atom 10-const
   ISPIN  =      1    spin polarized calculation?
   LNONCOLLINEAR =      F non collinear calculations
   LSORBIT =      F    spin-orbit coupling
   INIWAV =      1    electr: 0-lowe 1-rand  2-diag
   LASPH  =      F    aspherical Exc in radial PAW
   METAGGA=      F    non-selfconsistent MetaGGA calc.

 Electronic Relaxation 1
   ENCUT  =  450.0 eV  33.07 Ry    5.75 a.u.  53.70 53.70 14.74*2*pi/ulx,y,z
   ENINI  =  450.0     initial cutoff
   ENAUG  =  644.9 eV  augmentation charge cutoff
   NELM   =    200;   NELMIN=  2; NELMDL= -5     # of ELM steps 
   EDIFF  = 0.1E-05   stopping-criterion for ELM
   LREAL  =      F    real-space projection
   NLSPLINE    = F    spline interpolate recip. space projectors
   LCOMPAT=      F    compatible to vasp.4.4
   GGA_COMPAT  = T    GGA compatible to vasp.4.4-vasp.4.6
   LMAXPAW     = -100 max onsite density
   LMAXMIX     =    2 max onsite mixed and CHGCAR
   VOSKOWN=      0    Vosko Wilk Nusair interpolation
   ROPT   =    0.00000   0.00000
 Ionic relaxation
   EDIFFG = -.1E-02   stopping-criterion for IOM
   NSW    =      1    number of steps for IOM
   NBLOCK =      1;   KBLOCK =      1    inner block; outer block 
   IBRION =      8    ionic relax: 0-MD 1-quasi-New 2-CG
   NFREE  =      0    steps in history (QN), initial steepest desc. (CG)
   ISIF   =      2    stress and relaxation
   IWAVPR =     11    prediction:  0-non 1-charg 2-wave 3-comb
   ISYM   =      2    0-nonsym 1-usesym 2-fastsym
   LCORR  =      T    Harris-Foulkes like correction to forces

   POTIM  = 0.5000    time-step for ionic-motion
   TEIN   =    0.0    initial temperature
   TEBEG  =    0.0;   TEEND  =   0.0 temperature during run
   SMASS  =  -3.00    Nose mass-parameter (am)
   estimated Nose-frequenzy (Omega)   =  0.10E-29 period in steps =****** mass=  -0.220E-25a.u.
   SCALEE = 1.0000    scale energy and forces
   NPACO  =    256;   APACO  = 16.0  distance and # of slots for P.C.
   PSTRESS=    0.0 pullay stress

  Mass of Ions in am
   POMASS =  10.81 12.01
  Ionic Valenz
   ZVAL   =   3.00  4.00
  Atomic Wigner-Seitz radii
   RWIGS  =  -1.00 -1.00
  virtual crystal weights 
   VCA    =   1.00  1.00
   NELECT =    1080.0000    total number of electrons
   NUPDOWN=      -1.0000    fix difference up-down

 DOS related values:
   EMIN   =  10.00;   EMAX   =-10.00  energy-range for DOS
   EFERMI =   0.00
   ISMEAR =     0;   SIGMA  =   0.10  broadening in eV -4-tet -1-fermi 0-gaus

 Electronic relaxation 2 (details)
   IALGO  =     38    algorithm
   LDIAG  =      T    sub-space diagonalisation (order eigenvalues)
   LSUBROT=      F    optimize rotation matrix (better conditioning)
   TURBO    =      0    0=normal 1=particle mesh
   IRESTART =      0    0=no restart 2=restart with 2 vectors
   NREBOOT  =      0    no. of reboots
   NMIN     =      0    reboot dimension
   EREF     =   0.00    reference energy to select bands
   IMIX   =      4    mixing-type and parameters
     AMIX     =   0.40;   BMIX     =  1.00
     AMIX_MAG =   1.60;   BMIX_MAG =  1.00
     AMIN     =   0.10
     WC   =   100.;   INIMIX=   1;  MIXPRE=   1;  MAXMIX= -45

 Intra band minimization:
   WEIMIN = 0.0010     energy-eigenvalue tresh-hold
   EBREAK =  0.36E-09  absolut break condition
   DEPER  =   0.30     relativ break condition  

   TIME   =   0.40     timestep for ELM

  volume/ion in A,a.u.               =      24.69       166.63
  Fermi-wavevector in a.u.,A,eV,Ry     =   0.873444  1.650570 10.379942  0.762904
  Thomas-Fermi vector in A             =   1.992835
 
 Write flags
   LWAVE        =      T    write WAVECAR
   LDOWNSAMPLE  =      F    k-point downsampling of WAVECAR
   LCHARG       =      T    write CHGCAR
   LVTOT        =      F    write LOCPOT, total local potential
   LVHAR        =      F    write LOCPOT, Hartree potential only
   LELF         =      F    write electronic localiz. function (ELF)
   LORBIT       =      0    0 simple, 1 ext, 2 COOP (PROOUT), +10 PAW based schemes


 Dipole corrections
   LMONO  =      F    monopole corrections only (constant potential shift)
   LDIPOL =      F    correct potential (dipole corrections)
   IDIPOL =      0    1-x, 2-y, 3-z, 4-all directions 
   EPSILON=  1.0000000 bulk dielectric constant

 Exchange correlation treatment:
   GGA     =    --    GGA type
   LEXCH   =     8    internal setting for exchange type
   VOSKOWN=      0    Vosko Wilk Nusair interpolation
   LHFCALC =     F    Hartree Fock is set to
   LHFONE  =     F    Hartree Fock one center treatment
   AEXX    =    0.0000 exact exchange contribution

 Linear response parameters
   LEPSILON=     F    determine dielectric tensor
   LRPA    =     F    only Hartree local field effects (RPA)
   LNABLA  =     F    use nabla operator in PAW spheres
   LVEL    =     F    velocity operator in full k-point grid
   LINTERFAST=   F  fast interpolation
   KINTER  =     0    interpolate to denser k-point grid
   CSHIFT  =0.1000    complex shift for real part using Kramers Kronig
   OMEGAMAX=  -1.0    maximum frequency
   DEG_THRESHOLD= 0.2000000E-02 threshold for treating states as degnerate
   RTIME   =   -0.100 relaxation time in fs
  (WPLASMAI=    0.000 imaginary part of plasma frequency in eV, 0.658/RTIME)
   DFIELD  = 0.0000000 0.0000000 0.0000000 field for delta impulse in time
 
 Orbital magnetization related:
   ORBITALMAG=     F  switch on orbital magnetization
   LCHIMAG   =     F  perturbation theory with respect to B field
   DQ        =  0.001000  dq finite difference perturbation B field
   LLRAUG    =     F  two centre corrections for induced B field



--------------------------------------------------------------------------------------------------------


 linear response using symmetry
 charge density and potential will be updated during run
 non-spin polarized calculation
 Variant of blocked Davidson
 Davidson routine will perform the subspace rotation
 perform sub-space diagonalisation
    after iterative eigenvector-optimisation
 modified Broyden-mixing scheme, WC =      100.0
 initial mixing is a Kerker type mixing with AMIX =  0.4000 and BMIX =      1.0000
 Hartree-type preconditioning will be used
 using additional bands          156
 reciprocal scheme for non local part
 use partial core corrections
 calculate Harris-corrections to forces 
   (improved forces if not selfconsistent)
 use gradient corrections 
 use of overlap-Matrix (Vanderbilt PP)
 Gauss-broadening in eV      SIGMA  =   0.10


--------------------------------------------------------------------------------------------------------


  energy-cutoff  :      450.00
  volume of cell :     7111.21
      direct lattice vectors                 reciprocal lattice vectors
    26.885090604 15.522113110  0.000000000     0.018597668  0.032212109  0.000000000
   -26.885090604 15.522113110  0.000000000    -0.018597668  0.032212109  0.000000000
     0.000000000  0.000000000  8.520221400     0.000000000  0.000000000  0.117367842

  length of vectors
    31.044228001 31.044228001  8.520221400     0.037195339  0.037195339  0.117367842


 
 k-points in units of 2pi/SCALE and weight: K-points for BC3                        
   0.00000000  0.00000000  0.00000000       0.028
   0.00309961  0.00536868  0.00000000       0.167
   0.00619922  0.01073737  0.00000000       0.167
   0.00929883  0.01610605  0.00000000       0.083
   0.00000000  0.01073737  0.00000000       0.167
   0.00309961  0.01610605  0.00000000       0.333
   0.00000000  0.02147474  0.00000000       0.056
 
 k-points in reciprocal lattice and weights: K-points for BC3                        
   0.00000000  0.00000000  0.00000000       0.028
   0.16666667 -0.00000000  0.00000000       0.167
   0.33333333  0.00000000  0.00000000       0.167
   0.50000000 -0.00000000  0.00000000       0.083
   0.16666667  0.16666667  0.00000000       0.167
   0.33333333  0.16666667  0.00000000       0.333
   0.33333333  0.33333333  0.00000000       0.056
 
 position of ions in fractional coordinates (direct lattice) 
   0.05555550  0.11111100  0.25000000
   0.22222217  0.11111100  0.25000000
   0.38888883  0.11111100  0.25000000
   0.55555550  0.11111100  0.25000000
   0.72222217  0.11111100  0.25000000
   0.88888883  0.11111100  0.25000000
   0.05555550  0.27777767  0.25000000
   0.22222217  0.27777767  0.25000000
   0.38888883  0.27777767  0.25000000
   0.55555550  0.27777767  0.25000000
   0.72222217  0.27777767  0.25000000
   0.88888883  0.27777767  0.25000000
   0.05555550  0.44444433  0.25000000
   0.22222217  0.44444433  0.25000000
   0.38888883  0.44444433  0.25000000
   0.55555550  0.44444433  0.25000000
   0.72222217  0.44444433  0.25000000
   0.88888883  0.44444433  0.25000000
   0.05555550  0.61111100  0.25000000
   0.22222217  0.61111100  0.25000000
   0.38888883  0.61111100  0.25000000
   0.55555550  0.61111100  0.25000000
   0.72222217  0.61111100  0.25000000
   0.88888883  0.61111100  0.25000000
   0.05555550  0.77777767  0.25000000
   0.22222217  0.77777767  0.25000000
   0.38888883  0.77777767  0.25000000
   0.55555550  0.77777767  0.25000000
   0.72222217  0.77777767  0.25000000
   0.88888883  0.77777767  0.25000000
   0.05555550  0.94444433  0.25000000
   0.22222217  0.94444433  0.25000000
   0.38888883  0.94444433  0.25000000
   0.55555550  0.94444433  0.25000000
   0.72222217  0.94444433  0.25000000
   0.88888883  0.94444433  0.25000000
   0.11111100  0.05555550  0.25000000
   0.27777767  0.05555550  0.25000000
   0.44444433  0.05555550  0.25000000
   0.61111100  0.05555550  0.25000000
   0.77777767  0.05555550  0.25000000
   0.94444433  0.05555550  0.25000000
   0.11111100  0.22222217  0.25000000
   0.27777767  0.22222217  0.25000000
   0.44444433  0.22222217  0.25000000
   0.61111100  0.22222217  0.25000000
   0.77777767  0.22222217  0.25000000
   0.94444433  0.22222217  0.25000000
   0.11111100  0.38888883  0.25000000
   0.27777767  0.38888883  0.25000000
   0.44444433  0.38888883  0.25000000
   0.61111100  0.38888883  0.25000000
   0.77777767  0.38888883  0.25000000
   0.94444433  0.38888883  0.25000000
   0.11111100  0.55555550  0.25000000
   0.27777767  0.55555550  0.25000000
   0.44444433  0.55555550  0.25000000
   0.61111100  0.55555550  0.25000000
   0.77777767  0.55555550  0.25000000
   0.94444433  0.55555550  0.25000000
   0.11111100  0.72222217  0.25000000
   0.27777767  0.72222217  0.25000000
   0.44444433  0.72222217  0.25000000
   0.61111100  0.72222217  0.25000000
   0.77777767  0.72222217  0.25000000
   0.94444433  0.72222217  0.25000000
   0.11111100  0.88888883  0.25000000
   0.27777767  0.88888883  0.25000000
   0.44444433  0.88888883  0.25000000
   0.61111100  0.88888883  0.25000000
   0.77777767  0.88888883  0.25000000
   0.94444433  0.88888883  0.25000000
   0.02644854  0.05289725  0.25000000
   0.19311521  0.05289725  0.25000000
   0.35978187  0.05289725  0.25000000
   0.52644854  0.05289725  0.25000000
   0.69311521  0.05289725  0.25000000
   0.85978187  0.05289725  0.25000000
   0.02644854  0.21956391  0.25000000
   0.19311521  0.21956391  0.25000000
   0.35978187  0.21956391  0.25000000
   0.52644854  0.21956391  0.25000000
   0.69311521  0.21956391  0.25000000
   0.85978187  0.21956391  0.25000000
   0.02644854  0.38623058  0.25000000
   0.19311521  0.38623058  0.25000000
   0.35978187  0.38623058  0.25000000
   0.52644854  0.38623058  0.25000000
   0.69311521  0.38623058  0.25000000
   0.85978187  0.38623058  0.25000000
   0.02644854  0.55289725  0.25000000
   0.19311521  0.55289725  0.25000000
   0.35978187  0.55289725  0.25000000
   0.52644854  0.55289725  0.25000000
   0.69311521  0.55289725  0.25000000
   0.85978187  0.55289725  0.25000000
   0.02644854  0.71956391  0.25000000
   0.19311521  0.71956391  0.25000000
   0.35978187  0.71956391  0.25000000
   0.52644854  0.71956391  0.25000000
   0.69311521  0.71956391  0.25000000
   0.85978187  0.71956391  0.25000000
   0.02644854  0.88623058  0.25000000
   0.19311521  0.88623058  0.25000000
   0.35978187  0.88623058  0.25000000
   0.52644854  0.88623058  0.25000000
   0.69311521  0.88623058  0.25000000
   0.85978187  0.88623058  0.25000000
   0.05289725  0.02644854  0.25000000
   0.21956391  0.02644854  0.25000000
   0.38623058  0.02644854  0.25000000
   0.55289725  0.02644854  0.25000000
   0.71956391  0.02644854  0.25000000
   0.88623058  0.02644854  0.25000000
   0.05289725  0.19311521  0.25000000
   0.21956391  0.19311521  0.25000000
   0.38623058  0.19311521  0.25000000
   0.55289725  0.19311521  0.25000000
   0.71956391  0.19311521  0.25000000
   0.88623058  0.19311521  0.25000000
   0.05289725  0.35978187  0.25000000
   0.21956391  0.35978187  0.25000000
   0.38623058  0.35978187  0.25000000
   0.55289725  0.35978187  0.25000000
   0.71956391  0.35978187  0.25000000
   0.88623058  0.35978187  0.25000000
   0.05289725  0.52644854  0.25000000
   0.21956391  0.52644854  0.25000000
   0.38623058  0.52644854  0.25000000
   0.55289725  0.52644854  0.25000000
   0.71956391  0.52644854  0.25000000
   0.88623058  0.52644854  0.25000000
   0.05289725  0.69311521  0.25000000
   0.21956391  0.69311521  0.25000000
   0.38623058  0.69311521  0.25000000
   0.55289725  0.69311521  0.25000000
   0.71956391  0.69311521  0.25000000
   0.88623058  0.69311521  0.25000000
   0.05289725  0.85978187  0.25000000
   0.21956391  0.85978187  0.25000000
   0.38623058  0.85978187  0.25000000
   0.55289725  0.85978187  0.25000000
   0.71956391  0.85978187  0.25000000
   0.88623058  0.85978187  0.25000000
   0.02644854  0.14021796  0.25000000
   0.19311521  0.14021796  0.25000000
   0.35978187  0.14021796  0.25000000
   0.52644854  0.14021796  0.25000000
   0.69311521  0.14021796  0.25000000
   0.85978187  0.14021796  0.25000000
   0.02644854  0.30688463  0.25000000
   0.19311521  0.30688463  0.25000000
   0.35978187  0.30688463  0.25000000
   0.52644854  0.30688463  0.25000000
   0.69311521  0.30688463  0.25000000
   0.85978187  0.30688463  0.25000000
   0.02644854  0.47355129  0.25000000
   0.19311521  0.47355129  0.25000000
   0.35978187  0.47355129  0.25000000
   0.52644854  0.47355129  0.25000000
   0.69311521  0.47355129  0.25000000
   0.85978187  0.47355129  0.25000000
   0.02644854  0.64021796  0.25000000
   0.19311521  0.64021796  0.25000000
   0.35978187  0.64021796  0.25000000
   0.52644854  0.64021796  0.25000000
   0.69311521  0.64021796  0.25000000
   0.85978187  0.64021796  0.25000000
   0.02644854  0.80688463  0.25000000
   0.19311521  0.80688463  0.25000000
   0.35978187  0.80688463  0.25000000
   0.52644854  0.80688463  0.25000000
   0.69311521  0.80688463  0.25000000
   0.85978187  0.80688463  0.25000000
   0.02644854  0.97355129  0.25000000
   0.19311521  0.97355129  0.25000000
   0.35978187  0.97355129  0.25000000
   0.52644854  0.97355129  0.25000000
   0.69311521  0.97355129  0.25000000
   0.85978187  0.97355129  0.25000000
   0.14021796  0.02644854  0.25000000
   0.30688463  0.02644854  0.25000000
   0.47355129  0.02644854  0.25000000
   0.64021796  0.02644854  0.25000000
   0.80688463  0.02644854  0.25000000
   0.97355129  0.02644854  0.25000000
   0.14021796  0.19311521  0.25000000
   0.30688463  0.19311521  0.25000000
   0.47355129  0.19311521  0.25000000
   0.64021796  0.19311521  0.25000000
   0.80688463  0.19311521  0.25000000
   0.97355129  0.19311521  0.25000000
   0.14021796  0.35978187  0.25000000
   0.30688463  0.35978187  0.25000000
   0.47355129  0.35978187  0.25000000
   0.64021796  0.35978187  0.25000000
   0.80688463  0.35978187  0.25000000
   0.97355129  0.35978187  0.25000000
   0.14021796  0.52644854  0.25000000
   0.30688463  0.52644854  0.25000000
   0.47355129  0.52644854  0.25000000
   0.64021796  0.52644854  0.25000000
   0.80688463  0.52644854  0.25000000
   0.97355129  0.52644854  0.25000000
   0.14021796  0.69311521  0.25000000
   0.30688463  0.69311521  0.25000000
   0.47355129  0.69311521  0.25000000
   0.64021796  0.69311521  0.25000000
   0.80688463  0.69311521  0.25000000
   0.97355129  0.69311521  0.25000000
   0.14021796  0.85978187  0.25000000
   0.30688463  0.85978187  0.25000000
   0.47355129  0.85978187  0.25000000
   0.64021796  0.85978187  0.25000000
   0.80688463  0.85978187  0.25000000
   0.97355129  0.85978187  0.25000000
   0.11376925  0.14021796  0.25000000
   0.28043592  0.14021796  0.25000000
   0.44710259  0.14021796  0.25000000
   0.61376925  0.14021796  0.25000000
   0.78043592  0.14021796  0.25000000
   0.94710259  0.14021796  0.25000000
   0.11376925  0.30688463  0.25000000
   0.28043592  0.30688463  0.25000000
   0.44710259  0.30688463  0.25000000
   0.61376925  0.30688463  0.25000000
   0.78043592  0.30688463  0.25000000
   0.94710259  0.30688463  0.25000000
   0.11376925  0.47355129  0.25000000
   0.28043592  0.47355129  0.25000000
   0.44710259  0.47355129  0.25000000
   0.61376925  0.47355129  0.25000000
   0.78043592  0.47355129  0.25000000
   0.94710259  0.47355129  0.25000000
   0.11376925  0.64021796  0.25000000
   0.28043592  0.64021796  0.25000000
   0.44710259  0.64021796  0.25000000
   0.61376925  0.64021796  0.25000000
   0.78043592  0.64021796  0.25000000
   0.94710259  0.64021796  0.25000000
   0.11376925  0.80688463  0.25000000
   0.28043592  0.80688463  0.25000000
   0.44710259  0.80688463  0.25000000
   0.61376925  0.80688463  0.25000000
   0.78043592  0.80688463  0.25000000
   0.94710259  0.80688463  0.25000000
   0.11376925  0.97355129  0.25000000
   0.28043592  0.97355129  0.25000000
   0.44710259  0.97355129  0.25000000
   0.61376925  0.97355129  0.25000000
   0.78043592  0.97355129  0.25000000
   0.94710259  0.97355129  0.25000000
   0.14021796  0.11376925  0.25000000
   0.30688463  0.11376925  0.25000000
   0.47355129  0.11376925  0.25000000
   0.64021796  0.11376925  0.25000000
   0.80688463  0.11376925  0.25000000
   0.97355129  0.11376925  0.25000000
   0.14021796  0.28043592  0.25000000
   0.30688463  0.28043592  0.25000000
   0.47355129  0.28043592  0.25000000
   0.64021796  0.28043592  0.25000000
   0.80688463  0.28043592  0.25000000
   0.97355129  0.28043592  0.25000000
   0.14021796  0.44710259  0.25000000
   0.30688463  0.44710259  0.25000000
   0.47355129  0.44710259  0.25000000
   0.64021796  0.44710259  0.25000000
   0.80688463  0.44710259  0.25000000
   0.97355129  0.44710259  0.25000000
   0.14021796  0.61376925  0.25000000
   0.30688463  0.61376925  0.25000000
   0.47355129  0.61376925  0.25000000
   0.64021796  0.61376925  0.25000000
   0.80688463  0.61376925  0.25000000
   0.97355129  0.61376925  0.25000000
   0.14021796  0.78043592  0.25000000
   0.30688463  0.78043592  0.25000000
   0.47355129  0.78043592  0.25000000
   0.64021796  0.78043592  0.25000000
   0.80688463  0.78043592  0.25000000
   0.97355129  0.78043592  0.25000000
   0.14021796  0.94710259  0.25000000
   0.30688463  0.94710259  0.25000000
   0.47355129  0.94710259  0.25000000
   0.64021796  0.94710259  0.25000000
   0.80688463  0.94710259  0.25000000
   0.97355129  0.94710259  0.25000000
 
 position of ions in cartesian coordinates  (Angst):
  -1.49361465  2.58701626  2.13005535
   2.98723378  5.17403512  2.13005535
   7.46808222  7.76105397  2.13005535
  11.94893065 10.34807282  2.13005535
  16.42977909 12.93509167  2.13005535
  20.91062752 15.52211052  2.13005535
  -5.97446309  5.17403512  2.13005535
  -1.49361465  7.76105397  2.13005535
   2.98723378 10.34807282  2.13005535
   7.46808222 12.93509167  2.13005535
  11.94893065 15.52211052  2.13005535
  16.42977909 18.10912938  2.13005535
 -10.45531152  7.76105397  2.13005535
  -5.97446309 10.34807282  2.13005535
  -1.49361465 12.93509167  2.13005535
   2.98723378 15.52211052  2.13005535
   7.46808222 18.10912938  2.13005535
  11.94893065 20.69614823  2.13005535
 -14.93615995 10.34807282  2.13005535
 -10.45531152 12.93509167  2.13005535
  -5.97446309 15.52211052  2.13005535
  -1.49361465 18.10912938  2.13005535
   2.98723378 20.69614823  2.13005535
   7.46808222 23.28316708  2.13005535
 -19.41700839 12.93509167  2.13005535
 -14.93615995 15.52211052  2.13005535
 -10.45531152 18.10912938  2.13005535
  -5.97446309 20.69614823  2.13005535
  -1.49361465 23.28316708  2.13005535
   2.98723378 25.87018593  2.13005535
 -23.89785682 15.52211052  2.13005535
 -19.41700839 18.10912938  2.13005535
 -14.93615995 20.69614823  2.13005535
 -10.45531152 23.28316708  2.13005535
  -5.97446309 25.87018593  2.13005535
  -1.49361465 28.45720478  2.13005535
   1.49361465  2.58701626  2.13005535
   5.97446309  5.17403512  2.13005535
  10.45531152  7.76105397  2.13005535
  14.93615995 10.34807282  2.13005535
  19.41700839 12.93509167  2.13005535
  23.89785682 15.52211052  2.13005535
  -2.98723378  5.17403512  2.13005535
   1.49361465  7.76105397  2.13005535
   5.97446309 10.34807282  2.13005535
  10.45531152 12.93509167  2.13005535
  14.93615995 15.52211052  2.13005535
  19.41700839 18.10912938  2.13005535
  -7.46808222  7.76105397  2.13005535
  -2.98723378 10.34807282  2.13005535
   1.49361465 12.93509167  2.13005535
   5.97446309 15.52211052  2.13005535
  10.45531152 18.10912938  2.13005535
  14.93615995 20.69614823  2.13005535
 -11.94893065 10.34807282  2.13005535
  -7.46808222 12.93509167  2.13005535
  -2.98723378 15.52211052  2.13005535
   1.49361465 18.10912938  2.13005535
   5.97446309 20.69614823  2.13005535
  10.45531152 23.28316708  2.13005535
 -16.42977909 12.93509167  2.13005535
 -11.94893065 15.52211052  2.13005535
  -7.46808222 18.10912938  2.13005535
  -2.98723378 20.69614823  2.13005535
   1.49361465 23.28316708  2.13005535
   5.97446309 25.87018593  2.13005535
 -20.91062752 15.52211052  2.13005535
 -16.42977909 18.10912938  2.13005535
 -11.94893065 20.69614823  2.13005535
  -7.46808222 23.28316708  2.13005535
  -2.98723378 25.87018593  2.13005535
   1.49361465 28.45720478  2.13005535
  -0.71107588  1.23161429  2.13005535
   3.76977255  3.81863314  2.13005535
   8.25062098  6.40565200  2.13005535
  12.73146942  8.99267085  2.13005535
  17.21231785 11.57968970  2.13005535
  21.69316629 14.16670855  2.13005535
  -5.19192432  3.81863314  2.13005535
  -0.71107588  6.40565200  2.13005535
   3.76977255  8.99267085  2.13005535
   8.25062098 11.57968970  2.13005535
  12.73146942 14.16670855  2.13005535
  17.21231785 16.75372740  2.13005535
  -9.67277275  6.40565200  2.13005535
  -5.19192432  8.99267085  2.13005535
  -0.71107588 11.57968970  2.13005535
   3.76977255 14.16670855  2.13005535
   8.25062098 16.75372740  2.13005535
  12.73146942 19.34074625  2.13005535
 -14.15362119  8.99267085  2.13005535
  -9.67277275 11.57968970  2.13005535
  -5.19192432 14.16670855  2.13005535
  -0.71107588 16.75372740  2.13005535
   3.76977255 19.34074625  2.13005535
   8.25062098 21.92776511  2.13005535
 -18.63446962 11.57968970  2.13005535
 -14.15362119 14.16670855  2.13005535
  -9.67277275 16.75372740  2.13005535
  -5.19192432 19.34074625  2.13005535
  -0.71107588 21.92776511  2.13005535
   3.76977255 24.51478396  2.13005535
 -23.11531806 14.16670855  2.13005535
 -18.63446962 16.75372740  2.13005535
 -14.15362119 19.34074625  2.13005535
  -9.67277275 21.92776511  2.13005535
  -5.19192432 24.51478396  2.13005535
  -0.71107588 27.10180281  2.13005535
   0.71107588  1.23161429  2.13005535
   5.19192432  3.81863314  2.13005535
   9.67277275  6.40565200  2.13005535
  14.15362119  8.99267085  2.13005535
  18.63446962 11.57968970  2.13005535
  23.11531806 14.16670855  2.13005535
  -3.76977255  3.81863314  2.13005535
   0.71107588  6.40565200  2.13005535
   5.19192432  8.99267085  2.13005535
   9.67277275 11.57968970  2.13005535
  14.15362119 14.16670855  2.13005535
  18.63446962 16.75372740  2.13005535
  -8.25062098  6.40565200  2.13005535
  -3.76977255  8.99267085  2.13005535
   0.71107588 11.57968970  2.13005535
   5.19192432 14.16670855  2.13005535
   9.67277275 16.75372740  2.13005535
  14.15362119 19.34074625  2.13005535
 -12.73146942  8.99267085  2.13005535
  -8.25062098 11.57968970  2.13005535
  -3.76977255 14.16670855  2.13005535
   0.71107588 16.75372740  2.13005535
   5.19192432 19.34074625  2.13005535
   9.67277275 21.92776511  2.13005535
 -17.21231785 11.57968970  2.13005535
 -12.73146942 14.16670855  2.13005535
  -8.25062098 16.75372740  2.13005535
  -3.76977255 19.34074625  2.13005535
   0.71107588 21.92776511  2.13005535
   5.19192432 24.51478396  2.13005535
 -21.69316629 14.16670855  2.13005535
 -17.21231785 16.75372740  2.13005535
 -12.73146942 19.34074625  2.13005535
  -8.25062098 21.92776511  2.13005535
  -3.76977255 24.51478396  2.13005535
   0.71107588 27.10180281  2.13005535
  -3.05870114  2.58701626  2.13005535
   1.42214729  5.17403512  2.13005535
   5.90299572  7.76105397  2.13005535
  10.38384416 10.34807282  2.13005535
  14.86469259 12.93509167  2.13005535
  19.34554103 15.52211052  2.13005535
  -7.53954958  5.17403512  2.13005535
  -3.05870114  7.76105397  2.13005535
   1.42214729 10.34807282  2.13005535
   5.90299572 12.93509167  2.13005535
  10.38384416 15.52211052  2.13005535
  14.86469259 18.10912938  2.13005535
 -12.02039801  7.76105397  2.13005535
  -7.53954958 10.34807282  2.13005535
  -3.05870114 12.93509167  2.13005535
   1.42214729 15.52211052  2.13005535
   5.90299572 18.10912938  2.13005535
  10.38384416 20.69614823  2.13005535
 -16.50124645 10.34807282  2.13005535
 -12.02039801 12.93509167  2.13005535
  -7.53954958 15.52211052  2.13005535
  -3.05870114 18.10912938  2.13005535
   1.42214729 20.69614823  2.13005535
   5.90299572 23.28316708  2.13005535
 -20.98209488 12.93509167  2.13005535
 -16.50124645 15.52211052  2.13005535
 -12.02039801 18.10912938  2.13005535
  -7.53954958 20.69614823  2.13005535
  -3.05870114 23.28316708  2.13005535
   1.42214729 25.87018593  2.13005535
 -25.46294332 15.52211052  2.13005535
 -20.98209488 18.10912938  2.13005535
 -16.50124645 20.69614823  2.13005535
 -12.02039801 23.28316708  2.13005535
  -7.53954958 25.87018593  2.13005535
  -3.05870114 28.45720478  2.13005535
   3.05870114  2.58701626  2.13005535
   7.53954958  5.17403512  2.13005535
  12.02039801  7.76105397  2.13005535
  16.50124645 10.34807282  2.13005535
  20.98209488 12.93509167  2.13005535
  25.46294332 15.52211052  2.13005535
  -1.42214729  5.17403512  2.13005535
   3.05870114  7.76105397  2.13005535
   7.53954958 10.34807282  2.13005535
  12.02039801 12.93509167  2.13005535
  16.50124645 15.52211052  2.13005535
  20.98209488 18.10912938  2.13005535
  -5.90299572  7.76105397  2.13005535
  -1.42214729 10.34807282  2.13005535
   3.05870114 12.93509167  2.13005535
   7.53954958 15.52211052  2.13005535
  12.02039801 18.10912938  2.13005535
  16.50124645 20.69614823  2.13005535
 -10.38384416 10.34807282  2.13005535
  -5.90299572 12.93509167  2.13005535
  -1.42214729 15.52211052  2.13005535
   3.05870114 18.10912938  2.13005535
   7.53954958 20.69614823  2.13005535
  12.02039801 23.28316708  2.13005535
 -14.86469259 12.93509167  2.13005535
 -10.38384416 15.52211052  2.13005535
  -5.90299572 18.10912938  2.13005535
  -1.42214729 20.69614823  2.13005535
   3.05870114 23.28316708  2.13005535
   7.53954958 25.87018593  2.13005535
 -19.34554103 15.52211052  2.13005535
 -14.86469259 18.10912938  2.13005535
 -10.38384416 20.69614823  2.13005535
  -5.90299572 23.28316708  2.13005535
  -1.42214729 25.87018593  2.13005535
   3.05870114 28.45720478  2.13005535
  -0.71107588  3.94241824  2.13005535
   3.76977255  6.52943709  2.13005535
   8.25062098  9.11645594  2.13005535
  12.73146942 11.70347479  2.13005535
  17.21231785 14.29049364  2.13005535
  21.69316629 16.87751250  2.13005535
  -5.19192432  6.52943709  2.13005535
  -0.71107588  9.11645594  2.13005535
   3.76977255 11.70347479  2.13005535
   8.25062098 14.29049364  2.13005535
  12.73146942 16.87751250  2.13005535
  17.21231785 19.46453135  2.13005535
  -9.67277275  9.11645594  2.13005535
  -5.19192432 11.70347479  2.13005535
  -0.71107588 14.29049364  2.13005535
   3.76977255 16.87751250  2.13005535
   8.25062098 19.46453135  2.13005535
  12.73146942 22.05155020  2.13005535
 -14.15362119 11.70347479  2.13005535
  -9.67277275 14.29049364  2.13005535
  -5.19192432 16.87751250  2.13005535
  -0.71107588 19.46453135  2.13005535
   3.76977255 22.05155020  2.13005535
   8.25062098 24.63856905  2.13005535
 -18.63446962 14.29049364  2.13005535
 -14.15362119 16.87751250  2.13005535
  -9.67277275 19.46453135  2.13005535
  -5.19192432 22.05155020  2.13005535
  -0.71107588 24.63856905  2.13005535
   3.76977255 27.22558790  2.13005535
 -23.11531806 16.87751250  2.13005535
 -18.63446962 19.46453135  2.13005535
 -14.15362119 22.05155020  2.13005535
  -9.67277275 24.63856905  2.13005535
  -5.19192432 27.22558790  2.13005535
  -0.71107588 29.81260675  2.13005535
   0.71107588  3.94241824  2.13005535
   5.19192432  6.52943709  2.13005535
   9.67277275  9.11645594  2.13005535
  14.15362119 11.70347479  2.13005535
  18.63446962 14.29049364  2.13005535
  23.11531806 16.87751250  2.13005535
  -3.76977255  6.52943709  2.13005535
   0.71107588  9.11645594  2.13005535
   5.19192432 11.70347479  2.13005535
   9.67277275 14.29049364  2.13005535
  14.15362119 16.87751250  2.13005535
  18.63446962 19.46453135  2.13005535
  -8.25062098  9.11645594  2.13005535
  -3.76977255 11.70347479  2.13005535
   0.71107588 14.29049364  2.13005535
   5.19192432 16.87751250  2.13005535
   9.67277275 19.46453135  2.13005535
  14.15362119 22.05155020  2.13005535
 -12.73146942 11.70347479  2.13005535
  -8.25062098 14.29049364  2.13005535
  -3.76977255 16.87751250  2.13005535
   0.71107588 19.46453135  2.13005535
   5.19192432 22.05155020  2.13005535
   9.67277275 24.63856905  2.13005535
 -17.21231785 14.29049364  2.13005535
 -12.73146942 16.87751250  2.13005535
  -8.25062098 19.46453135  2.13005535
  -3.76977255 22.05155020  2.13005535
   0.71107588 24.63856905  2.13005535
   5.19192432 27.22558790  2.13005535
 -21.69316629 16.87751250  2.13005535
 -17.21231785 19.46453135  2.13005535
 -12.73146942 22.05155020  2.13005535
  -8.25062098 24.63856905  2.13005535
  -3.76977255 27.22558790  2.13005535
   0.71107588 29.81260675  2.13005535
 


--------------------------------------------------------------------------------------------------------


 k-point  1 :   0.0000 0.0000 0.0000  plane waves:  154193
 k-point  2 :   0.1667-0.0000 0.0000  plane waves:  154197
 k-point  3 :   0.3333 0.0000 0.0000  plane waves:  154215
 k-point  4 :   0.5000-0.0000 0.0000  plane waves:  154192
 k-point  5 :   0.1667 0.1667 0.0000  plane waves:  154168
 k-point  6 :   0.3333 0.1667 0.0000  plane waves:  154153
 k-point  7 :   0.3333 0.3333 0.0000  plane waves:  154086

 maximum and minimum number of plane-waves per node :    154215   154086

 maximum number of plane-waves:    154215
 maximum index in each direction: 
   IXMAX=   53   IYMAX=   53   IZMAX=   14
   IXMIN=  -54   IYMIN=  -54   IZMIN=  -14


 serial   3D FFT for wavefunctions
 parallel 3D FFT for charge:
    minimum data exchange during FFTs selected (reduces bandwidth)


 total amount of memory used by VASP MPI-rank0  2190186. kBytes
=======================================================================

   base      :      30000. kBytes
   nonl-proj :     848848. kBytes
   fftplans  :      75175. kBytes
   grid      :     218474. kBytes
   one-center:        884. kBytes
   wavefun   :    1016805. kBytes
 
     INWAV:  cpu time    0.0001: real time    0.0001
 Broyden mixing: mesh for mixing (old mesh)
   NGX =107   NGY =107   NGZ = 29
  (NGX  =432   NGY  =432   NGZ  =120)
  gives a total of 332021 points

 initial charge density was supplied:
 charge density of overlapping atoms calculated
 number of electron    1080.0000000 magnetization 
 keeping initial charge density in first step


--------------------------------------------------------------------------------------------------------


 Maximum index for augmentation-charges          403 (set IRDMAX)


--------------------------------------------------------------------------------------------------------


 First call to EWALD:  gamma=   0.092
 Maximum number of real-space cells 2x 2x 6
 Maximum number of reciprocal cells 4x 4x 1

    FEWALD:  cpu time    0.0382: real time    0.0386


--------------------------------------- Iteration      1(   1)  ---------------------------------------


    POTLOK:  cpu time    1.9109: real time    1.9122
    SETDIJ:  cpu time    0.0426: real time    0.0426
     EDDAV:  cpu time 3950.6494: real time 3950.6311
       DOS:  cpu time    0.0018: real time    0.0018
    --------------------------------------------
      LOOP:  cpu time 3952.6046: real time 3952.5876

 eigenvalue-minimisations  :  9924
 total energy-change (2. order) : 0.7533143E+04  (-0.4136129E+05)
 number of electron    1080.0000000 magnetization 
 augmentation part     1080.0000000 magnetization 

 Free energy of the ion-electron system (eV)
  ---------------------------------------------------
  alpha Z        PSCENC =       924.45162320
  Ewald energy   TEWEN  =     25209.75278834
  -Hartree energ DENC   =    -54891.58250642
  -exchange      EXHF   =         0.00000000
  -V(xc)+E(xc)   XCENC  =      3281.13830629
  PAW double counting   =     26572.75233448   -26634.16095297
  entropy T*S    EENTRO =        -0.31657817
  eigenvalues    EBANDS =     -3836.23257687
  atomic energy  EATOM  =     36907.34038308
  Solvation  Ediel_sol  =         0.00000000
  ---------------------------------------------------
  free energy    TOTEN  =      7533.14282097 eV

  energy without entropy =     7533.45939914  energy(sigma->0) =     7533.30111006


--------------------------------------------------------------------------------------------------------




--------------------------------------- Iteration      1(   2)  ---------------------------------------


     EDDAV:  cpu time 5062.7380: real time 5062.7139
       DOS:  cpu time    0.0013: real time    0.0013
    --------------------------------------------
      LOOP:  cpu time 5062.7392: real time 5062.7151

 eigenvalue-minimisations  : 13500
 total energy-change (2. order) :-0.8914247E+04  (-0.8521020E+04)
 number of electron    1080.0000000 magnetization 
 augmentation part     1080.0000000 magnetization 

 Free energy of the ion-electron system (eV)
  ---------------------------------------------------
  alpha Z        PSCENC =       924.45162320
  Ewald energy   TEWEN  =     25209.75278834
  -Hartree energ DENC   =    -54891.58250642
  -exchange      EXHF   =         0.00000000
  -V(xc)+E(xc)   XCENC  =      3281.13830629
  PAW double counting   =     26572.75233448   -26634.16095297
  entropy T*S    EENTRO =        -0.00000023
  eigenvalues    EBANDS =    -12750.79616700
  atomic energy  EATOM  =     36907.34038308
  Solvation  Ediel_sol  =         0.00000000
  ---------------------------------------------------
  free energy    TOTEN  =     -1381.10419122 eV

  energy without entropy =    -1381.10419099  energy(sigma->0) =    -1381.10419110


--------------------------------------------------------------------------------------------------------




--------------------------------------- Iteration      1(   3)  ---------------------------------------


