 vasp.5.4.4.18Apr17-6-g9f103f2a35 (build Mar 30 2023 15:39:25) complex          
  
 executed on             LinuxIFC date 2023.06.22  12:46:21
 running on   12 total cores
 distrk:  each k-point on   12 cores,    1 groups
 distr:  one band on NCORES_PER_BAND=   1 cores,   12 groups


--------------------------------------------------------------------------------------------------------


 INCAR:
 POTCAR:    PAW_PBE B 06Sep2000                   
 POTCAR:    PAW_PBE C 08Apr2002                   

 ----------------------------------------------------------------------------- 
|                                                                             |
|           W    W    AA    RRRRR   N    N  II  N    N   GGGG   !!!           |
|           W    W   A  A   R    R  NN   N  II  NN   N  G    G  !!!           |
|           W    W  A    A  R    R  N N  N  II  N N  N  G       !!!           |
|           W WW W  AAAAAA  RRRRR   N  N N  II  N  N N  G  GGG   !            |
|           WW  WW  A    A  R   R   N   NN  II  N   NN  G    G                |
|           W    W  A    A  R    R  N    N  II  N    N   GGGG   !!!           |
|                                                                             |
|      For optimal performance we recommend to set                            |
|        NCORE= 4 - approx SQRT( number of cores)                             |
|      NCORE specifies how many cores store one orbital (NPAR=cpu/NCORE).     |
|      This setting can  greatly improve the performance of VASP for DFT.     |
|      The default,   NCORE=1            might be grossly inefficient         |
|      on modern multi-core architectures or massively parallel machines.     |
|      Do your own testing !!!!                                               |
|      Unfortunately you need to use the default for GW and RPA calculations. |
|      (for HF NCORE is supported but not extensively tested yet)             |
|                                                                             |
 ----------------------------------------------------------------------------- 

 POTCAR:    PAW_PBE B 06Sep2000                   
   SHA256 =  a32ced30f5ae56fd4d10b4325ff17eb3e4e38ee0f4288bc219fb012fddfa6e97 B/
   COPYR  = (c) Copyright 06Sep2000 Georg Kresse                                
   COPYR  = This file is part of the software VASP. Any use, copying, and all ot
   COPYR  = If you do not have a valid VASP license, you may not use, copy or di
   VRHFIN =B: s2p1                                                              
   LEXCH  = PE                                                                  
   EATOM  =    71.1703 eV,    5.2309 Ry                                         
                                                                                
   TITEL  = PAW_PBE B 06Sep2000                                                 
   LULTRA =        F    use ultrasoft PP ?                                      
   IUNSCR =        1    unscreen: 0-lin 1-nonlin 2-no                           
   RPACOR =    1.200    partial core radius                                     
   POMASS =   10.811; ZVAL   =    3.000    mass and valenz                      
   RCORE  =    1.700    outmost cutoff radius                                   
   RWIGS  =    1.710; RWIGS  =    0.905    wigner-seitz radius (au A)           
   ENMAX  =  318.614; ENMIN  =  238.960 eV                                      
   ICORE  =        2    local potential                                         
   LCOR   =        T    correct aug charges                                     
   LPAW   =        T    paw PP                                                  
   EAUG   =  535.514                                                            
   DEXC   =    0.000                                                            
   RMAX   =    1.732    core radius for proj-oper                               
   RAUG   =    1.300    factor for augmentation sphere                          
   RDEP   =    1.757    radius for radial grids                                 
   RDEPT  =    1.436    core radius for aug-charge                              
                                                                                
   Atomic configuration                                                         
    4 entries                                                                   
     n  l   j            E        occ.                                          
     1  0  0.50      -180.5896   2.0000                                         
     2  0  0.50        -9.4431   2.0000                                         
     2  1  0.50        -3.6068   1.0000                                         
     3  2  1.50        -4.0817   0.0000                                         
   Description                                                                  
     l       E           TYP  RCUT    TYP  RCUT                                 
     0     -9.4430752     23  1.500                                             
     0      0.8675899     23  1.500                                             
     1     -3.6067955     23  1.700                                             
     1      6.1086146     23  1.700                                             
     2     -4.0817478      7  1.700                                             
  local pseudopotential read in
  partial core-charges read in
  partial kinetic energy density read in
  atomic valenz-charges read in
  non local Contribution for L=           0  read in
    real space projection operators read in
  non local Contribution for L=           0  read in
    real space projection operators read in
  non local Contribution for L=           1  read in
    real space projection operators read in
  non local Contribution for L=           1  read in
    real space projection operators read in
    PAW grid and wavefunctions read in
 
   number of l-projection  operators is LMAX  =           4
   number of lm-projection operators is LMMAX =           8
 
 POTCAR:    PAW_PBE C 08Apr2002                   
   SHA256 =  253f7b50bb8d59471dbedb8285d89021f4a42ed1a2c5d38a03a736e69125dd95 C/
   COPYR  = (c) Copyright 08Apr2002 Georg Kresse                                
   COPYR  = This file is part of the software VASP. Any use, copying, and all ot
   COPYR  = If you do not have a valid VASP license, you may not use, copy or di
   VRHFIN =C: s2p2                                                              
   LEXCH  = PE                                                                  
   EATOM  =   147.1560 eV,   10.8157 Ry                                         
                                                                                
   TITEL  = PAW_PBE C 08Apr2002                                                 
   LULTRA =        F    use ultrasoft PP ?                                      
   IUNSCR =        1    unscreen: 0-lin 1-nonlin 2-no                           
   RPACOR =    1.200    partial core radius                                     
   POMASS =   12.011; ZVAL   =    4.000    mass and valenz                      
   RCORE  =    1.500    outmost cutoff radius                                   
   RWIGS  =    1.630; RWIGS  =    0.863    wigner-seitz radius (au A)           
   ENMAX  =  400.000; ENMIN  =  300.000 eV                                      
   ICORE  =        2    local potential                                         
   LCOR   =        T    correct aug charges                                     
   LPAW   =        T    paw PP                                                  
   EAUG   =  644.873                                                            
   DEXC   =    0.000                                                            
   RMAX   =    1.529    core radius for proj-oper                               
   RAUG   =    1.300    factor for augmentation sphere                          
   RDEP   =    1.501    radius for radial grids                                 
   RDEPT  =    1.300    core radius for aug-charge                              
                                                                                
   Atomic configuration                                                         
    4 entries                                                                   
     n  l   j            E        occ.                                          
     1  0  0.50      -273.3789   2.0000                                         
     2  0  0.50       -13.7508   2.0000                                         
     2  1  0.50        -5.2854   2.0000                                         
     3  2  1.50        -5.4423   0.0000                                         
   Description                                                                  
     l       E           TYP  RCUT    TYP  RCUT                                 
     0    -13.7508458     23  1.200                                             
     0     -8.2022199     23  1.200                                             
     1     -5.2854383     23  1.500                                             
     1     34.0145650     23  1.500                                             
     2     -5.4423304      7  1.500                                             
  local pseudopotential read in
  partial core-charges read in
  partial kinetic energy density read in
  atomic valenz-charges read in
  non local Contribution for L=           0  read in
    real space projection operators read in
  non local Contribution for L=           0  read in
    real space projection operators read in
  non local Contribution for L=           1  read in
    real space projection operators read in
  non local Contribution for L=           1  read in
    real space projection operators read in
    PAW grid and wavefunctions read in
 
   number of l-projection  operators is LMAX  =           4
   number of lm-projection operators is LMMAX =           8
 

 ----------------------------------------------------------------------------- 
|                                                                             |
|  ADVICE TO THIS USER RUNNING 'VASP/VAMP'   (HEAR YOUR MASTER'S VOICE ...):  |
|                                                                             |
|      You have a (more or less) 'large supercell' and for larger cells       |
|      it might be more efficient to use real space projection opertators     |
|      So try LREAL= Auto  in the INCAR   file.                               |
|      Mind:          For very  accurate calculation you might also keep the  |
|      reciprocal projection scheme          (i.e. LREAL=.FALSE.)             |
|                                                                             |
 ----------------------------------------------------------------------------- 

  PAW_PBE B 06Sep2000                   :
 energy of atom  1       EATOM=  -71.1703
 kinetic energy error for atom=    0.0015 (will be added to EATOM!!)
  PAW_PBE C 08Apr2002                   :
 energy of atom  2       EATOM= -147.1560
 kinetic energy error for atom=    0.0116 (will be added to EATOM!!)
 
 
 POSCAR: generated by phonopy                    
  positions in direct lattice
  No initial velocities read in
 exchange correlation table for  LEXCH =        8
   RHO(1)=    0.500       N(1)  =     2000
   RHO(2)=  100.500       N(2)  =     4000
 


--------------------------------------------------------------------------------------------------------


 ion  position               nearest neighbor table
   1  0.111  0.222  0.250-  19 1.57  55 1.57  37 1.57
   2  0.444  0.222  0.250-  20 1.57  56 1.57  38 1.57
   3  0.778  0.222  0.250-  21 1.57  57 1.57  39 1.57
   4  0.111  0.556  0.250-  22 1.57  58 1.57  40 1.57
   5  0.444  0.556  0.250-  23 1.57  59 1.57  41 1.57
   6  0.778  0.556  0.250-  24 1.57  60 1.57  42 1.57
   7  0.111  0.889  0.250-  25 1.57  61 1.57  43 1.57
   8  0.444  0.889  0.250-  26 1.57  62 1.57  44 1.57
   9  0.778  0.889  0.250-  27 1.57  63 1.57  45 1.57
  10  0.222  0.111  0.250-  28 1.57  64 1.57  46 1.57
  11  0.556  0.111  0.250-  29 1.57  65 1.57  47 1.57
  12  0.889  0.111  0.250-  30 1.57  66 1.57  48 1.57
  13  0.222  0.444  0.250-  31 1.57  67 1.57  49 1.57
  14  0.556  0.444  0.250-  32 1.57  68 1.57  50 1.57
  15  0.889  0.444  0.250-  33 1.57  69 1.57  51 1.57
  16  0.222  0.778  0.250-  34 1.57  70 1.57  52 1.57
  17  0.556  0.778  0.250-  35 1.57  71 1.57  53 1.57
  18  0.889  0.778  0.250-  36 1.57  72 1.57  54 1.57
  19  0.053  0.106  0.250-  48 1.42  28 1.42   1 1.57
  20  0.386  0.106  0.250-  46 1.42  29 1.42   2 1.57
  21  0.720  0.106  0.250-  47 1.42  30 1.42   3 1.57
  22  0.053  0.439  0.250-  51 1.42  31 1.42   4 1.57
  23  0.386  0.439  0.250-  49 1.42  32 1.42   5 1.57
  24  0.720  0.439  0.250-  50 1.42  33 1.42   6 1.57
  25  0.053  0.772  0.250-  54 1.42  34 1.42   7 1.57
  26  0.386  0.772  0.250-  52 1.42  35 1.42   8 1.57
  27  0.720  0.772  0.250-  53 1.42  36 1.42   9 1.57
  28  0.106  0.053  0.250-  43 1.42  19 1.42  10 1.57
  29  0.439  0.053  0.250-  44 1.42  20 1.42  11 1.57
  30  0.772  0.053  0.250-  45 1.42  21 1.42  12 1.57
  31  0.106  0.386  0.250-  37 1.42  22 1.42  13 1.57
  32  0.439  0.386  0.250-  38 1.42  23 1.42  14 1.57
  33  0.772  0.386  0.250-  39 1.42  24 1.42  15 1.57
  34  0.106  0.720  0.250-  40 1.42  25 1.42  16 1.57
  35  0.439  0.720  0.250-  41 1.42  26 1.42  17 1.57
  36  0.772  0.720  0.250-  42 1.42  27 1.42  18 1.57
  37  0.053  0.280  0.250-  66 1.42  31 1.42   1 1.57
  38  0.386  0.280  0.250-  64 1.42  32 1.42   2 1.57
  39  0.720  0.280  0.250-  33 1.42  65 1.42   3 1.57
  40  0.053  0.614  0.250-  34 1.42  69 1.42   4 1.57
  41  0.386  0.614  0.250-  35 1.42  67 1.42   5 1.57
  42  0.720  0.614  0.250-  36 1.42  68 1.42   6 1.57
  43  0.053  0.947  0.250-  28 1.42  72 1.42   7 1.57
  44  0.386  0.947  0.250-  29 1.42  70 1.42   8 1.57
  45  0.720  0.947  0.250-  30 1.42  71 1.42   9 1.57
  46  0.280  0.053  0.250-  61 1.42  20 1.42  10 1.57
  47  0.614  0.053  0.250-  21 1.42  62 1.42  11 1.57
  48  0.947  0.053  0.250-  19 1.42  63 1.42  12 1.57
  49  0.280  0.386  0.250-  55 1.42  23 1.42  13 1.57
  50  0.614  0.386  0.250-  24 1.42  56 1.42  14 1.57
  51  0.947  0.386  0.250-  22 1.42  57 1.42  15 1.57
  52  0.280  0.720  0.250-  26 1.42  58 1.42  16 1.57
  53  0.614  0.720  0.250-  27 1.42  59 1.42  17 1.57
  54  0.947  0.720  0.250-  25 1.42  60 1.42  18 1.57
  55  0.228  0.280  0.250-  49 1.42  64 1.42   1 1.57
  56  0.561  0.280  0.250-  50 1.42  65 1.42   2 1.57
  57  0.894  0.280  0.250-  51 1.42  66 1.42   3 1.57
  58  0.228  0.614  0.250-  52 1.42  67 1.42   4 1.57
  59  0.561  0.614  0.250-  53 1.42  68 1.42   5 1.57
  60  0.894  0.614  0.250-  54 1.42  69 1.42   6 1.57
  61  0.228  0.947  0.250-  46 1.42  70 1.42   7 1.57
  62  0.561  0.947  0.250-  47 1.42  71 1.42   8 1.57
  63  0.894  0.947  0.250-  48 1.42  72 1.42   9 1.57
  64  0.280  0.228  0.250-  38 1.42  55 1.42  10 1.57
  65  0.614  0.228  0.250-  39 1.42  56 1.42  11 1.57
  66  0.947  0.228  0.250-  37 1.42  57 1.42  12 1.57
  67  0.280  0.561  0.250-  41 1.42  58 1.42  13 1.57
  68  0.614  0.561  0.250-  42 1.42  59 1.42  14 1.57
  69  0.947  0.561  0.250-  40 1.42  60 1.42  15 1.57
  70  0.280  0.894  0.250-  44 1.42  61 1.42  16 1.57
  71  0.614  0.894  0.250-  45 1.42  62 1.42  17 1.57
  72  0.947  0.894  0.250-  43 1.42  63 1.42  18 1.57
 
  LATTYP: Found a hexagonal cell.
 ALAT       =    15.5221131104
 C/A-ratio  =     0.5489086015
  
  Lattice vectors:
  
 A1 = (  13.4425453021,   7.7610565552,   0.0000000000)
 A2 = ( -13.4425453021,   7.7610565552,   0.0000000000)
 A3 = (   0.0000000000,   0.0000000000,   8.5202213998)


Analysis of symmetry for initial positions (statically):
=====================================================================
 Subroutine PRICEL returns following result:
 
  LATTYP: Found a hexagonal cell.
 ALAT       =     5.1740377035
 C/A-ratio  =     1.6467258045
  
  Lattice vectors:
  
 A1 = (   4.4808484340,   2.5870188517,   0.0000000000)
 A2 = (  -4.4808484340,   2.5870188517,   0.0000000000)
 A3 = (   0.0000000000,   0.0000000000,   8.5202213998)
 
   9 primitive cells build up your supercell.
 

 Routine SETGRP: Setting up the symmetry group for a 
 hexagonal supercell.


 Subroutine GETGRP returns: Found 24 space group operations
 (whereof 12 operations were pure point group operations)
 out of a pool of 24 trial point group operations.


The static configuration has the point symmetry C_6v.
 The point group associated with its full space group is D_6h.


Analysis of symmetry for dynamics (positions and initial velocities):
=====================================================================
 Subroutine PRICEL returns following result:
 
  LATTYP: Found a hexagonal cell.
 ALAT       =     5.1740377035
 C/A-ratio  =     1.6467258045
  
  Lattice vectors:
  
 A1 = (   4.4808484340,   2.5870188517,   0.0000000000)
 A2 = (  -4.4808484340,   2.5870188517,   0.0000000000)
 A3 = (   0.0000000000,   0.0000000000,   8.5202213998)
 
   9 primitive cells build up your supercell.
 

 Routine SETGRP: Setting up the symmetry group for a 
 hexagonal supercell.


 Subroutine GETGRP returns: Found 24 space group operations
 (whereof 12 operations were pure point group operations)
 out of a pool of 24 trial point group operations.


The dynamic configuration has the point symmetry C_6v.
 The point group associated with its full space group is D_6h.


 Subroutine INISYM returns: Found 24 space group operations
 (whereof 12 operations are pure point group operations),
 and found     9 'primitive' translations

 
 
 KPOINTS: K-points for BC3                        

Automatic generation of k-mesh.
Space group operators:
 irot       det(A)        alpha          n_x          n_y          n_z        tau_x        tau_y        tau_z
    1     1.000000     0.000001     1.000000     0.000000     0.000000     0.000000     0.000000     0.000000
    2     1.000000    60.000000     0.000000     0.000000    -1.000000     0.000000     0.000000     0.000000
    3     1.000000   120.000000     0.000000     0.000000    -1.000000     0.000000     0.000000     0.000000
    4     1.000000   180.000000     0.000000     0.000000     1.000000     0.000000     0.000000     0.000000
    5     1.000000   120.000000     0.000000     0.000000     1.000000     0.000000     0.000000     0.000000
    6     1.000000    60.000000     0.000000     0.000000     1.000000     0.000000     0.000000     0.000000
    7    -1.000000   179.999999     0.866025     0.500000     0.000000     0.000000     0.000000     0.000000
    8    -1.000000   179.999999     1.000000     0.000000     0.000000     0.000000     0.000000     0.000000
    9    -1.000000   179.999999     0.866025    -0.500000     0.000000     0.000000     0.000000     0.000000
   10    -1.000000   179.999999     0.500000    -0.866025     0.000000     0.000000     0.000000     0.000000
   11    -1.000000   179.999999     0.000000     1.000000     0.000000     0.000000     0.000000     0.000000
   12    -1.000000   179.999999    -0.500000    -0.866025     0.000000     0.000000     0.000000     0.000000
   13    -1.000000     0.000001     1.000000     0.000000     0.000000     0.000000     0.000000     0.500000
   14    -1.000000    60.000000     0.000000     0.000000    -1.000000     0.000000     0.000000     0.500000
   15    -1.000000   120.000000     0.000000     0.000000    -1.000000     0.000000     0.000000     0.500000
   16    -1.000000   180.000000     0.000000     0.000000     1.000000     0.000000     0.000000     0.500000
   17    -1.000000   120.000000     0.000000     0.000000     1.000000     0.000000     0.000000     0.500000
   18    -1.000000    60.000000     0.000000     0.000000     1.000000     0.000000     0.000000     0.500000
   19     1.000000   179.999999     0.866025     0.500000     0.000000     0.000000     0.000000     0.500000
   20     1.000000   179.999999     1.000000     0.000000     0.000000     0.000000     0.000000     0.500000
   21     1.000000   179.999999     0.866025    -0.500000     0.000000     0.000000     0.000000     0.500000
   22     1.000000   179.999999     0.500000    -0.866025     0.000000     0.000000     0.000000     0.500000
   23     1.000000   179.999999     0.000000     1.000000     0.000000     0.000000     0.000000     0.500000
   24     1.000000   179.999999    -0.500000    -0.866025     0.000000     0.000000     0.000000     0.500000
 
 Subroutine IBZKPT returns following result:
 ===========================================
 
 Found      4 irreducible k-points:
 
 Following reciprocal coordinates:
            Coordinates               Weight
  0.000000  0.000000  0.000000      1.000000
  0.250000 -0.000000  0.000000      6.000000
  0.500000 -0.000000  0.000000      3.000000
  0.250000  0.250000  0.000000      6.000000
 
 Following cartesian coordinates:
            Coordinates               Weight
  0.000000  0.000000  0.000000      1.000000
  0.009299  0.016106  0.000000      6.000000
  0.018598  0.032212  0.000000      3.000000
  0.000000  0.032212  0.000000      6.000000
 
 
 Subroutine IBZKPT_HF returns following result:
 ==============================================
 
 Found     16 k-points in 1st BZ
 the following     16 k-points will be used (e.g. in the exchange kernel)
 Following reciprocal coordinates:   # in IRBZ
  0.000000  0.000000  0.000000    0.06250000   1 t-inv F
  0.250000 -0.000000  0.000000    0.06250000   2 t-inv F
  0.500000 -0.000000  0.000000    0.06250000   3 t-inv F
  0.250000  0.250000  0.000000    0.06250000   4 t-inv F
  0.000000  0.250000  0.000000    0.06250000   2 t-inv F
 -0.250000  0.250000  0.000000    0.06250000   2 t-inv F
 -0.250000  0.000000  0.000000    0.06250000   2 t-inv F
 -0.000000 -0.250000  0.000000    0.06250000   2 t-inv F
  0.250000 -0.250000  0.000000    0.06250000   2 t-inv F
  0.000000  0.500000  0.000000    0.06250000   3 t-inv F
 -0.500000  0.500000  0.000000    0.06250000   3 t-inv F
 -0.250000  0.500000  0.000000    0.06250000   4 t-inv F
 -0.500000  0.250000  0.000000    0.06250000   4 t-inv F
 -0.250000 -0.250000  0.000000    0.06250000   4 t-inv F
  0.250000 -0.500000  0.000000    0.06250000   4 t-inv F
  0.500000 -0.250000  0.000000    0.06250000   4 t-inv F


--------------------------------------------------------------------------------------------------------




 Dimension of arrays:
   k-points           NKPTS =      4   k-points in BZ     NKDIM =      4   number of bands    NBANDS=    180
   number of dos      NEDOS =    301   number of ions     NIONS =     72
   non local maximal  LDIM  =      4   non local SUM 2l+1 LMDIM =      8
   total plane-waves  NPLWV = 699840
   max r-space proj   IRMAX =      1   max aug-charges    IRDMAX=   6338
   dimension x,y,z NGX =   108 NGY =  108 NGZ =   60
   dimension x,y,z NGXF=   216 NGYF=  216 NGZF=  120
   support grid    NGXF=   216 NGYF=  216 NGZF=  120
   ions per type =              18  54
   NGX,Y,Z   is equivalent  to a cutoff of  11.57, 11.57, 11.71 a.u.
   NGXF,Y,Z  is equivalent  to a cutoff of  23.13, 23.13, 23.41 a.u.

 SYSTEM =  BC3                                     
 POSCAR =  generated by phonopy                    

 Startparameter for this run:
   NWRITE =      2    write-flag & timer
   PREC   = accura    normal or accurate (medium, high low for compatibility)
   ISTART =      0    job   : 0-new  1-cont  2-samecut
   ICHARG =      2    charge: 1-file 2-atom 10-const
   ISPIN  =      1    spin polarized calculation?
   LNONCOLLINEAR =      F non collinear calculations
   LSORBIT =      F    spin-orbit coupling
   INIWAV =      1    electr: 0-lowe 1-rand  2-diag
   LASPH  =      F    aspherical Exc in radial PAW
   METAGGA=      F    non-selfconsistent MetaGGA calc.

 Electronic Relaxation 1
   ENCUT  =  450.0 eV  33.07 Ry    5.75 a.u.  26.85 26.85 14.74*2*pi/ulx,y,z
   ENINI  =  450.0     initial cutoff
   ENAUG  =  644.9 eV  augmentation charge cutoff
   NELM   =    200;   NELMIN=  2; NELMDL= -5     # of ELM steps 
   EDIFF  = 0.1E-05   stopping-criterion for ELM
   LREAL  =      F    real-space projection
   NLSPLINE    = F    spline interpolate recip. space projectors
   LCOMPAT=      F    compatible to vasp.4.4
   GGA_COMPAT  = T    GGA compatible to vasp.4.4-vasp.4.6
   LMAXPAW     = -100 max onsite density
   LMAXMIX     =    2 max onsite mixed and CHGCAR
   VOSKOWN=      0    Vosko Wilk Nusair interpolation
   ROPT   =    0.00000   0.00000
 Ionic relaxation
   EDIFFG = -.1E-02   stopping-criterion for IOM
   NSW    =      1    number of steps for IOM
   NBLOCK =      1;   KBLOCK =      1    inner block; outer block 
   IBRION =      8    ionic relax: 0-MD 1-quasi-New 2-CG
   NFREE  =      0    steps in history (QN), initial steepest desc. (CG)
   ISIF   =      2    stress and relaxation
   IWAVPR =     11    prediction:  0-non 1-charg 2-wave 3-comb
   ISYM   =      2    0-nonsym 1-usesym 2-fastsym
   LCORR  =      T    Harris-Foulkes like correction to forces

   POTIM  = 0.5000    time-step for ionic-motion
   TEIN   =    0.0    initial temperature
   TEBEG  =    0.0;   TEEND  =   0.0 temperature during run
   SMASS  =  -3.00    Nose mass-parameter (am)
   estimated Nose-frequenzy (Omega)   =  0.10E-29 period in steps =****** mass=  -0.551E-26a.u.
   SCALEE = 1.0000    scale energy and forces
   NPACO  =    256;   APACO  = 16.0  distance and # of slots for P.C.
   PSTRESS=    0.0 pullay stress

  Mass of Ions in am
   POMASS =  10.81 12.01
  Ionic Valenz
   ZVAL   =   3.00  4.00
  Atomic Wigner-Seitz radii
   RWIGS  =  -1.00 -1.00
  virtual crystal weights 
   VCA    =   1.00  1.00
   NELECT =     270.0000    total number of electrons
   NUPDOWN=      -1.0000    fix difference up-down

 DOS related values:
   EMIN   =  10.00;   EMAX   =-10.00  energy-range for DOS
   EFERMI =   0.00
   ISMEAR =     0;   SIGMA  =   0.10  broadening in eV -4-tet -1-fermi 0-gaus

 Electronic relaxation 2 (details)
   IALGO  =     38    algorithm
   LDIAG  =      T    sub-space diagonalisation (order eigenvalues)
   LSUBROT=      F    optimize rotation matrix (better conditioning)
   TURBO    =      0    0=normal 1=particle mesh
   IRESTART =      0    0=no restart 2=restart with 2 vectors
   NREBOOT  =      0    no. of reboots
   NMIN     =      0    reboot dimension
   EREF     =   0.00    reference energy to select bands
   IMIX   =      4    mixing-type and parameters
     AMIX     =   0.40;   BMIX     =  1.00
     AMIX_MAG =   1.60;   BMIX_MAG =  1.00
     AMIN     =   0.10
     WC   =   100.;   INIMIX=   1;  MIXPRE=   1;  MAXMIX= -45

 Intra band minimization:
   WEIMIN = 0.0010     energy-eigenvalue tresh-hold
   EBREAK =  0.14E-08  absolut break condition
   DEPER  =   0.30     relativ break condition  

   TIME   =   0.40     timestep for ELM

  volume/ion in A,a.u.               =      24.69       166.63
  Fermi-wavevector in a.u.,A,eV,Ry     =   0.873444  1.650570 10.379942  0.762904
  Thomas-Fermi vector in A             =   1.992835
 
 Write flags
   LWAVE        =      T    write WAVECAR
   LDOWNSAMPLE  =      F    k-point downsampling of WAVECAR
   LCHARG       =      T    write CHGCAR
   LVTOT        =      F    write LOCPOT, total local potential
   LVHAR        =      F    write LOCPOT, Hartree potential only
   LELF         =      F    write electronic localiz. function (ELF)
   LORBIT       =      0    0 simple, 1 ext, 2 COOP (PROOUT), +10 PAW based schemes


 Dipole corrections
   LMONO  =      F    monopole corrections only (constant potential shift)
   LDIPOL =      F    correct potential (dipole corrections)
   IDIPOL =      0    1-x, 2-y, 3-z, 4-all directions 
   EPSILON=  1.0000000 bulk dielectric constant

 Exchange correlation treatment:
   GGA     =    --    GGA type
   LEXCH   =     8    internal setting for exchange type
   VOSKOWN=      0    Vosko Wilk Nusair interpolation
   LHFCALC =     F    Hartree Fock is set to
   LHFONE  =     F    Hartree Fock one center treatment
   AEXX    =    0.0000 exact exchange contribution

 Linear response parameters
   LEPSILON=     F    determine dielectric tensor
   LRPA    =     F    only Hartree local field effects (RPA)
   LNABLA  =     F    use nabla operator in PAW spheres
   LVEL    =     F    velocity operator in full k-point grid
   LINTERFAST=   F  fast interpolation
   KINTER  =     0    interpolate to denser k-point grid
   CSHIFT  =0.1000    complex shift for real part using Kramers Kronig
   OMEGAMAX=  -1.0    maximum frequency
   DEG_THRESHOLD= 0.2000000E-02 threshold for treating states as degnerate
   RTIME   =   -0.100 relaxation time in fs
  (WPLASMAI=    0.000 imaginary part of plasma frequency in eV, 0.658/RTIME)
   DFIELD  = 0.0000000 0.0000000 0.0000000 field for delta impulse in time
 
 Orbital magnetization related:
   ORBITALMAG=     F  switch on orbital magnetization
   LCHIMAG   =     F  perturbation theory with respect to B field
   DQ        =  0.001000  dq finite difference perturbation B field
   LLRAUG    =     F  two centre corrections for induced B field



--------------------------------------------------------------------------------------------------------


 linear response using symmetry
 charge density and potential will be updated during run
 non-spin polarized calculation
 Variant of blocked Davidson
 Davidson routine will perform the subspace rotation
 perform sub-space diagonalisation
    after iterative eigenvector-optimisation
 modified Broyden-mixing scheme, WC =      100.0
 initial mixing is a Kerker type mixing with AMIX =  0.4000 and BMIX =      1.0000
 Hartree-type preconditioning will be used
 using additional bands           45
 reciprocal scheme for non local part
 use partial core corrections
 calculate Harris-corrections to forces 
   (improved forces if not selfconsistent)
 use gradient corrections 
 use of overlap-Matrix (Vanderbilt PP)
 Gauss-broadening in eV      SIGMA  =   0.10


--------------------------------------------------------------------------------------------------------


  energy-cutoff  :      450.00
  volume of cell :     1777.80
      direct lattice vectors                 reciprocal lattice vectors
    13.442545302  7.761056555  0.000000000     0.037195337  0.064424218  0.000000000
   -13.442545302  7.761056555  0.000000000    -0.037195337  0.064424218  0.000000000
     0.000000000  0.000000000  8.520221400     0.000000000  0.000000000  0.117367842

  length of vectors
    15.522114001 15.522114001  8.520221400     0.074390678  0.074390678  0.117367842


 
 k-points in units of 2pi/SCALE and weight: K-points for BC3                        
   0.00000000  0.00000000  0.00000000       0.062
   0.00929883  0.01610605  0.00000000       0.375
   0.01859767  0.03221211  0.00000000       0.188
   0.00000000  0.03221211  0.00000000       0.375
 
 k-points in reciprocal lattice and weights: K-points for BC3                        
   0.00000000  0.00000000  0.00000000       0.062
   0.25000000 -0.00000000  0.00000000       0.375
   0.50000000 -0.00000000  0.00000000       0.188
   0.25000000  0.25000000  0.00000000       0.375
 
 position of ions in fractional coordinates (direct lattice) 
   0.11111100  0.22222200  0.25000000
   0.44444433  0.22222200  0.25000000
   0.77777767  0.22222200  0.25000000
   0.11111100  0.55555533  0.25000000
   0.44444433  0.55555533  0.25000000
   0.77777767  0.55555533  0.25000000
   0.11111100  0.88888867  0.25000000
   0.44444433  0.88888867  0.25000000
   0.77777767  0.88888867  0.25000000
   0.22222200  0.11111100  0.25000000
   0.55555533  0.11111100  0.25000000
   0.88888867  0.11111100  0.25000000
   0.22222200  0.44444433  0.25000000
   0.55555533  0.44444433  0.25000000
   0.88888867  0.44444433  0.25000000
   0.22222200  0.77777767  0.25000000
   0.55555533  0.77777767  0.25000000
   0.88888867  0.77777767  0.25000000
   0.05289708  0.10579449  0.25000000
   0.38623041  0.10579449  0.25000000
   0.71956375  0.10579449  0.25000000
   0.05289708  0.43912783  0.25000000
   0.38623041  0.43912783  0.25000000
   0.71956375  0.43912783  0.25000000
   0.05289708  0.77246116  0.25000000
   0.38623041  0.77246116  0.25000000
   0.71956375  0.77246116  0.25000000
   0.10579449  0.05289708  0.25000000
   0.43912783  0.05289708  0.25000000
   0.77246116  0.05289708  0.25000000
   0.10579449  0.38623041  0.25000000
   0.43912783  0.38623041  0.25000000
   0.77246116  0.38623041  0.25000000
   0.10579449  0.71956375  0.25000000
   0.43912783  0.71956375  0.25000000
   0.77246116  0.71956375  0.25000000
   0.05289708  0.28043592  0.25000000
   0.38623041  0.28043592  0.25000000
   0.71956375  0.28043592  0.25000000
   0.05289708  0.61376925  0.25000000
   0.38623041  0.61376925  0.25000000
   0.71956375  0.61376925  0.25000000
   0.05289708  0.94710259  0.25000000
   0.38623041  0.94710259  0.25000000
   0.71956375  0.94710259  0.25000000
   0.28043592  0.05289708  0.25000000
   0.61376925  0.05289708  0.25000000
   0.94710259  0.05289708  0.25000000
   0.28043592  0.38623041  0.25000000
   0.61376925  0.38623041  0.25000000
   0.94710259  0.38623041  0.25000000
   0.28043592  0.71956375  0.25000000
   0.61376925  0.71956375  0.25000000
   0.94710259  0.71956375  0.25000000
   0.22753851  0.28043592  0.25000000
   0.56087184  0.28043592  0.25000000
   0.89420517  0.28043592  0.25000000
   0.22753851  0.61376925  0.25000000
   0.56087184  0.61376925  0.25000000
   0.89420517  0.61376925  0.25000000
   0.22753851  0.94710259  0.25000000
   0.56087184  0.94710259  0.25000000
   0.89420517  0.94710259  0.25000000
   0.28043592  0.22753851  0.25000000
   0.61376925  0.22753851  0.25000000
   0.94710259  0.22753851  0.25000000
   0.28043592  0.56087184  0.25000000
   0.61376925  0.56087184  0.25000000
   0.94710259  0.56087184  0.25000000
   0.28043592  0.89420517  0.25000000
   0.61376925  0.89420517  0.25000000
   0.94710259  0.89420517  0.25000000
 
 position of ions in cartesian coordinates  (Angst):
  -1.49361465  2.58701626  2.13005535
   2.98723378  5.17403512  2.13005535
   7.46808222  7.76105397  2.13005535
  -5.97446309  5.17403512  2.13005535
  -1.49361465  7.76105397  2.13005535
   2.98723378 10.34807282  2.13005535
 -10.45531152  7.76105397  2.13005535
  -5.97446309 10.34807282  2.13005535
  -1.49361465 12.93509167  2.13005535
   1.49361465  2.58701626  2.13005535
   5.97446309  5.17403512  2.13005535
  10.45531152  7.76105397  2.13005535
  -2.98723378  5.17403512  2.13005535
   1.49361465  7.76105397  2.13005535
   5.97446309 10.34807282  2.13005535
  -7.46808222  7.76105397  2.13005535
  -2.98723378 10.34807282  2.13005535
   1.49361465 12.93509167  2.13005535
  -0.71107588  1.23161429  2.13005535
   3.76977255  3.81863314  2.13005535
   8.25062098  6.40565200  2.13005535
  -5.19192432  3.81863314  2.13005535
  -0.71107588  6.40565200  2.13005535
   3.76977255  8.99267085  2.13005535
  -9.67277275  6.40565200  2.13005535
  -5.19192432  8.99267085  2.13005535
  -0.71107588 11.57968970  2.13005535
   0.71107588  1.23161429  2.13005535
   5.19192432  3.81863314  2.13005535
   9.67277275  6.40565200  2.13005535
  -3.76977255  3.81863314  2.13005535
   0.71107588  6.40565200  2.13005535
   5.19192432  8.99267085  2.13005535
  -8.25062098  6.40565200  2.13005535
  -3.76977255  8.99267085  2.13005535
   0.71107588 11.57968970  2.13005535
  -3.05870114  2.58701626  2.13005535
   1.42214729  5.17403512  2.13005535
   5.90299572  7.76105397  2.13005535
  -7.53954958  5.17403512  2.13005535
  -3.05870114  7.76105397  2.13005535
   1.42214729 10.34807282  2.13005535
 -12.02039801  7.76105397  2.13005535
  -7.53954958 10.34807282  2.13005535
  -3.05870114 12.93509167  2.13005535
   3.05870114  2.58701626  2.13005535
   7.53954958  5.17403512  2.13005535
  12.02039801  7.76105397  2.13005535
  -1.42214729  5.17403512  2.13005535
   3.05870114  7.76105397  2.13005535
   7.53954958 10.34807282  2.13005535
  -5.90299572  7.76105397  2.13005535
  -1.42214729 10.34807282  2.13005535
   3.05870114 12.93509167  2.13005535
  -0.71107588  3.94241824  2.13005535
   3.76977255  6.52943709  2.13005535
   8.25062098  9.11645594  2.13005535
  -5.19192432  6.52943709  2.13005535
  -0.71107588  9.11645594  2.13005535
   3.76977255 11.70347479  2.13005535
  -9.67277275  9.11645594  2.13005535
  -5.19192432 11.70347479  2.13005535
  -0.71107588 14.29049364  2.13005535
   0.71107588  3.94241824  2.13005535
   5.19192432  6.52943709  2.13005535
   9.67277275  9.11645594  2.13005535
  -3.76977255  6.52943709  2.13005535
   0.71107588  9.11645594  2.13005535
   5.19192432 11.70347479  2.13005535
  -8.25062098  9.11645594  2.13005535
  -3.76977255 11.70347479  2.13005535
   0.71107588 14.29049364  2.13005535
 


--------------------------------------------------------------------------------------------------------


 k-point  1 :   0.0000 0.0000 0.0000  plane waves:   38549
 k-point  2 :   0.2500-0.0000 0.0000  plane waves:   38555
 k-point  3 :   0.5000-0.0000 0.0000  plane waves:   38548
 k-point  4 :   0.2500 0.2500 0.0000  plane waves:   38541

 maximum and minimum number of plane-waves per node :     38555    38541

 maximum number of plane-waves:     38555
 maximum index in each direction: 
   IXMAX=   26   IYMAX=   26   IZMAX=   14
   IXMIN=  -27   IYMIN=  -27   IZMIN=  -14


 serial   3D FFT for wavefunctions
 parallel 3D FFT for charge:
    minimum data exchange during FFTs selected (reduces bandwidth)


 total amount of memory used by VASP MPI-rank0   205353. kBytes
=======================================================================

   base      :      30000. kBytes
   nonl-proj :      64157. kBytes
   fftplans  :      18791. kBytes
   grid      :      54618. kBytes
   one-center:        221. kBytes
   wavefun   :      37566. kBytes
 
     INWAV:  cpu time    0.0000: real time    0.0000
 Broyden mixing: mesh for mixing (old mesh)
   NGX = 53   NGY = 53   NGZ = 29
  (NGX  =216   NGY  =216   NGZ  =120)
  gives a total of  81461 points

 initial charge density was supplied:
 charge density of overlapping atoms calculated
 number of electron     270.0000000 magnetization 
 keeping initial charge density in first step


--------------------------------------------------------------------------------------------------------


 Maximum index for augmentation-charges          403 (set IRDMAX)


--------------------------------------------------------------------------------------------------------


 First call to EWALD:  gamma=   0.146
 Maximum number of real-space cells 3x 3x 4
 Maximum number of reciprocal cells 3x 3x 2

    FEWALD:  cpu time    0.0050: real time    0.0051


--------------------------------------- Iteration      1(   1)  ---------------------------------------


    POTLOK:  cpu time    0.4181: real time    0.4188
    SETDIJ:  cpu time    0.0108: real time    0.0108
     EDDAV:  cpu time   23.5091: real time   23.5096
       DOS:  cpu time    0.0004: real time    0.0004
    --------------------------------------------
      LOOP:  cpu time   23.9385: real time   23.9397

 eigenvalue-minimisations  :  1440
 total energy-change (2. order) : 0.1846852E+04  (-0.1036051E+05)
 number of electron     270.0000000 magnetization 
 augmentation part      270.0000000 magnetization 

 Free energy of the ion-electron system (eV)
  ---------------------------------------------------
  alpha Z        PSCENC =       231.11290580
  Ewald energy   TEWEN  =      6302.44197409
  -Hartree energ DENC   =    -13722.89562661
  -exchange      EXHF   =         0.00000000
  -V(xc)+E(xc)   XCENC  =       820.28457657
  PAW double counting   =      6643.18808362    -6658.54023824
  entropy T*S    EENTRO =        -0.07502395
  eigenvalues    EBANDS =      -995.49980013
  atomic energy  EATOM  =      9226.83509577
  Solvation  Ediel_sol  =         0.00000000
  ---------------------------------------------------
  free energy    TOTEN  =      1846.85194692 eV

  energy without entropy =     1846.92697088  energy(sigma->0) =     1846.88945890


--------------------------------------------------------------------------------------------------------




--------------------------------------- Iteration      1(   2)  ---------------------------------------


     EDDAV:  cpu time   30.9650: real time   30.9658
       DOS:  cpu time    0.0003: real time    0.0003
    --------------------------------------------
      LOOP:  cpu time   30.9653: real time   30.9660

 eigenvalue-minimisations  :  2064
 total energy-change (2. order) :-0.2210065E+04  (-0.2119192E+04)
 number of electron     270.0000000 magnetization 
 augmentation part      270.0000000 magnetization 

 Free energy of the ion-electron system (eV)
  ---------------------------------------------------
  alpha Z        PSCENC =       231.11290580
  Ewald energy   TEWEN  =      6302.44197409
  -Hartree energ DENC   =    -13722.89562661
  -exchange      EXHF   =         0.00000000
  -V(xc)+E(xc)   XCENC  =       820.28457657
  PAW double counting   =      6643.18808362    -6658.54023824
  entropy T*S    EENTRO =        -0.00000000
  eigenvalues    EBANDS =     -3205.63970375
  atomic energy  EATOM  =      9226.83509577
  Solvation  Ediel_sol  =         0.00000000
  ---------------------------------------------------
  free energy    TOTEN  =      -363.21293274 eV

  energy without entropy =     -363.21293274  energy(sigma->0) =     -363.21293274


--------------------------------------------------------------------------------------------------------




--------------------------------------- Iteration      1(   3)  ---------------------------------------


     EDDAV:  cpu time   26.0631: real time   26.0644
       DOS:  cpu time    0.0003: real time    0.0003
    --------------------------------------------
      LOOP:  cpu time   26.0633: real time   26.0647

 eigenvalue-minimisations  :  1656
 total energy-change (2. order) :-0.2870947E+03  (-0.2833659E+03)
 number of electron     270.0000000 magnetization 
 augmentation part      270.0000000 magnetization 

 Free energy of the ion-electron system (eV)
  ---------------------------------------------------
  alpha Z        PSCENC =       231.11290580
  Ewald energy   TEWEN  =      6302.44197409
  -Hartree energ DENC   =    -13722.89562661
  -exchange      EXHF   =         0.00000000
  -V(xc)+E(xc)   XCENC  =       820.28457657
  PAW double counting   =      6643.18808362    -6658.54023824
  entropy T*S    EENTRO =        -0.00000000
  eigenvalues    EBANDS =     -3492.73442370
  atomic energy  EATOM  =      9226.83509577
  Solvation  Ediel_sol  =         0.00000000
  ---------------------------------------------------
  free energy    TOTEN  =      -650.30765269 eV

  energy without entropy =     -650.30765269  energy(sigma->0) =     -650.30765269


--------------------------------------------------------------------------------------------------------




--------------------------------------- Iteration      1(   4)  ---------------------------------------


     EDDAV:  cpu time   27.7849: real time   27.7850
       DOS:  cpu time    0.0003: real time    0.0003
    --------------------------------------------
      LOOP:  cpu time   27.7852: real time   27.7853

 eigenvalue-minimisations  :  1800
 total energy-change (2. order) :-0.1026855E+02  (-0.1023241E+02)
 number of electron     270.0000000 magnetization 
 augmentation part      270.0000000 magnetization 

 Free energy of the ion-electron system (eV)
  ---------------------------------------------------
  alpha Z        PSCENC =       231.11290580
  Ewald energy   TEWEN  =      6302.44197409
  -Hartree energ DENC   =    -13722.89562661
  -exchange      EXHF   =         0.00000000
  -V(xc)+E(xc)   XCENC  =       820.28457657
  PAW double counting   =      6643.18808362    -6658.54023824
  entropy T*S    EENTRO =        -0.00000000
  eigenvalues    EBANDS =     -3503.00297412
  atomic energy  EATOM  =      9226.83509577
  Solvation  Ediel_sol  =         0.00000000
  ---------------------------------------------------
  free energy    TOTEN  =      -660.57620311 eV

  energy without entropy =     -660.57620311  energy(sigma->0) =     -660.57620311


--------------------------------------------------------------------------------------------------------




--------------------------------------- Iteration      1(   5)  ---------------------------------------


     EDDAV:  cpu time   29.0849: real time   29.0851
       DOS:  cpu time    0.0003: real time    0.0003
    CHARGE:  cpu time    1.2029: real time    1.2030
    MIXING:  cpu time    0.0096: real time    0.0096
    --------------------------------------------
      LOOP:  cpu time   30.2977: real time   30.2980

 eigenvalue-minimisations  :  1908
 total energy-change (2. order) :-0.3766409E+00  (-0.3763488E+00)
 number of electron     269.9999964 magnetization 
 augmentation part        5.2362124 magnetization 

 Broyden mixing:
  rms(total) = 0.39312E+01    rms(broyden)= 0.39298E+01
  rms(prec ) = 0.46157E+01
  weight for this iteration     100.00

 Free energy of the ion-electron system (eV)
  ---------------------------------------------------
  alpha Z        PSCENC =       231.11290580
  Ewald energy   TEWEN  =      6302.44197409
  -Hartree energ DENC   =    -13722.89562661
  -exchange      EXHF   =         0.00000000
  -V(xc)+E(xc)   XCENC  =       820.28457657
  PAW double counting   =      6643.18808362    -6658.54023824
  entropy T*S    EENTRO =        -0.00000000
  eigenvalues    EBANDS =     -3503.37961505
  atomic energy  EATOM  =      9226.83509577
  Solvation  Ediel_sol  =         0.00000000
  ---------------------------------------------------
  free energy    TOTEN  =      -660.95284404 eV

  energy without entropy =     -660.95284404  energy(sigma->0) =     -660.95284404


--------------------------------------------------------------------------------------------------------




--------------------------------------- Iteration      1(   6)  ---------------------------------------


    POTLOK:  cpu time    0.4086: real time    0.4101
    SETDIJ:  cpu time    0.0115: real time    0.0115
     EDDAV:  cpu time   25.2340: real time   25.2342
       DOS:  cpu time    0.0003: real time    0.0003
    CHARGE:  cpu time    1.2043: real time    1.2043
    MIXING:  cpu time    0.0095: real time    0.0096
    --------------------------------------------
      LOOP:  cpu time   26.8682: real time   26.8698

 eigenvalue-minimisations  :  1584
 total energy-change (2. order) : 0.4012974E+02  (-0.4565037E+01)
 number of electron     269.9999968 magnetization 
 augmentation part        4.8629970 magnetization 

 Broyden mixing:
  rms(total) = 0.22260E+01    rms(broyden)= 0.22259E+01
  rms(prec ) = 0.25675E+01
  weight for this iteration     100.00

 eigenvalues of (default mixing * dielectric matrix)
  average eigenvalue GAMMA=   1.9807
  1.9807

 Free energy of the ion-electron system (eV)
  ---------------------------------------------------
  alpha Z        PSCENC =       231.11290580
  Ewald energy   TEWEN  =      6302.44197409
  -Hartree energ DENC   =    -14118.97078643
  -exchange      EXHF   =         0.00000000
  -V(xc)+E(xc)   XCENC  =       838.34202057
  PAW double counting   =     12392.62670115   -12413.00996206
  entropy T*S    EENTRO =        -0.00000000
  eigenvalues    EBANDS =     -3080.20105220
  atomic energy  EATOM  =      9226.83509577
  Solvation  Ediel_sol  =         0.00000000
  ---------------------------------------------------
  free energy    TOTEN  =      -620.82310332 eV

  energy without entropy =     -620.82310332  energy(sigma->0) =     -620.82310332


--------------------------------------------------------------------------------------------------------




--------------------------------------- Iteration      1(   7)  ---------------------------------------


    POTLOK:  cpu time    0.4013: real time    0.4016
    SETDIJ:  cpu time    0.0109: real time    0.0109
     EDDAV:  cpu time   24.6730: real time   24.6730
       DOS:  cpu time    0.0003: real time    0.0003
    CHARGE:  cpu time    1.2079: real time    1.2079
    MIXING:  cpu time    0.0097: real time    0.0097
    --------------------------------------------
      LOOP:  cpu time   26.3031: real time   26.3033

 eigenvalue-minimisations  :  1536
 total energy-change (2. order) : 0.1478994E+02  (-0.3707612E+01)
 number of electron     269.9999972 magnetization 
 augmentation part        4.5298256 magnetization 

 Broyden mixing:
  rms(total) = 0.65867E+00    rms(broyden)= 0.65836E+00
  rms(prec ) = 0.74730E+00
  weight for this iteration     100.00

 eigenvalues of (default mixing * dielectric matrix)
  average eigenvalue GAMMA=   1.9084
  1.4771  2.3396

 Free energy of the ion-electron system (eV)
  ---------------------------------------------------
  alpha Z        PSCENC =       231.11290580
  Ewald energy   TEWEN  =      6302.44197409
  -Hartree energ DENC   =    -14556.74840062
  -exchange      EXHF   =         0.00000000
  -V(xc)+E(xc)   XCENC  =       858.32813270
  PAW double counting   =     22109.12786821   -22133.26225943
  entropy T*S    EENTRO =        -0.00000000
  eigenvalues    EBANDS =     -2643.86847682
  atomic energy  EATOM  =      9226.83509577
  Solvation  Ediel_sol  =         0.00000000
  ---------------------------------------------------
  free energy    TOTEN  =      -606.03316030 eV

  energy without entropy =     -606.03316030  energy(sigma->0) =     -606.03316030


--------------------------------------------------------------------------------------------------------




--------------------------------------- Iteration      1(   8)  ---------------------------------------


    POTLOK:  cpu time    0.4014: real time    0.4018
    SETDIJ:  cpu time    0.0108: real time    0.0108
     EDDAV:  cpu time   26.0946: real time   26.0945
       DOS:  cpu time    0.0003: real time    0.0003
    CHARGE:  cpu time    1.2159: real time    1.2159
    MIXING:  cpu time    0.0099: real time    0.0099
    --------------------------------------------
      LOOP:  cpu time   27.7328: real time   27.7332

 eigenvalue-minimisations  :  1656
 total energy-change (2. order) : 0.8167856E+00  (-0.1752492E+00)
 number of electron     269.9999972 magnetization 
 augmentation part        4.4807941 magnetization 

 Broyden mixing:
  rms(total) = 0.18132E+00    rms(broyden)= 0.18126E+00
  rms(prec ) = 0.27274E+00
  weight for this iteration     100.00

 eigenvalues of (default mixing * dielectric matrix)
  average eigenvalue GAMMA=   1.8179
  1.1725  2.3501  1.9313

 Free energy of the ion-electron system (eV)
  ---------------------------------------------------
  alpha Z        PSCENC =       231.11290580
  Ewald energy   TEWEN  =      6302.44197409
  -Hartree energ DENC   =    -14664.25336878
  -exchange      EXHF   =         0.00000000
  -V(xc)+E(xc)   XCENC  =       861.76449025
  PAW double counting   =     25607.59279324   -25631.12285295
  entropy T*S    EENTRO =        -0.00000008
  eigenvalues    EBANDS =     -2539.58741201
  atomic energy  EATOM  =      9226.83509577
  Solvation  Ediel_sol  =         0.00000000
  ---------------------------------------------------
  free energy    TOTEN  =      -605.21637467 eV

  energy without entropy =     -605.21637459  energy(sigma->0) =     -605.21637463


--------------------------------------------------------------------------------------------------------




--------------------------------------- Iteration      1(   9)  ---------------------------------------


    POTLOK:  cpu time    0.4015: real time    0.4024
    SETDIJ:  cpu time    0.0108: real time    0.0108
     EDDAV:  cpu time   25.0815: real time   25.0816
       DOS:  cpu time    0.0003: real time    0.0003
    CHARGE:  cpu time    1.2164: real time    1.2164
    MIXING:  cpu time    0.0102: real time    0.0102
    --------------------------------------------
      LOOP:  cpu time   26.7207: real time   26.7218

 eigenvalue-minimisations  :  1572
 total energy-change (2. order) : 0.1953032E+00  (-0.1920667E-01)
 number of electron     269.9999972 magnetization 
 augmentation part        4.4796940 magnetization 

 Broyden mixing:
  rms(total) = 0.59834E-01    rms(broyden)= 0.59818E-01
  rms(prec ) = 0.14709E+00
  weight for this iteration     100.00

 eigenvalues of (default mixing * dielectric matrix)
  average eigenvalue GAMMA=   1.8718
  2.4357  2.4357  1.1694  1.4465

 Free energy of the ion-electron system (eV)
  ---------------------------------------------------
  alpha Z        PSCENC =       231.11290580
  Ewald energy   TEWEN  =      6302.44197409
  -Hartree energ DENC   =    -14715.43351978
  -exchange      EXHF   =         0.00000000
  -V(xc)+E(xc)   XCENC  =       862.66991477
  PAW double counting   =     26303.85362662   -26326.77506250
  entropy T*S    EENTRO =        -0.00000015
  eigenvalues    EBANDS =     -2489.72600605
  atomic energy  EATOM  =      9226.83509577
  Solvation  Ediel_sol  =         0.00000000
  ---------------------------------------------------
  free energy    TOTEN  =      -605.02107142 eV

  energy without entropy =     -605.02107128  energy(sigma->0) =     -605.02107135


--------------------------------------------------------------------------------------------------------




--------------------------------------- Iteration      1(  10)  ---------------------------------------


    POTLOK:  cpu time    0.4017: real time    0.4019
    SETDIJ:  cpu time    0.0109: real time    0.0109
     EDDAV:  cpu time   25.8174: real time   25.8174
       DOS:  cpu time    0.0003: real time    0.0003
    CHARGE:  cpu time    1.2152: real time    1.2152
    MIXING:  cpu time    0.0101: real time    0.0101
    --------------------------------------------
      LOOP:  cpu time   27.4558: real time   27.4559

 eigenvalue-minimisations  :  1632
 total energy-change (2. order) : 0.5651251E-01  (-0.9957709E-02)
 number of electron     269.9999972 magnetization 
 augmentation part        4.4705242 magnetization 

 Broyden mixing:
  rms(total) = 0.39981E-01    rms(broyden)= 0.39967E-01
  rms(prec ) = 0.75603E-01
  weight for this iteration     100.00

 eigenvalues of (default mixing * dielectric matrix)
  average eigenvalue GAMMA=   1.9699
  2.7925  2.7925  1.0361  1.8969  1.3315

 Free energy of the ion-electron system (eV)
  ---------------------------------------------------
  alpha Z        PSCENC =       231.11290580
  Ewald energy   TEWEN  =      6302.44197409
  -Hartree energ DENC   =    -14774.16055748
  -exchange      EXHF   =         0.00000000
  -V(xc)+E(xc)   XCENC  =       863.59696163
  PAW double counting   =     26208.41268930   -26231.08230477
  entropy T*S    EENTRO =        -0.00000032
  eigenvalues    EBANDS =     -2432.12132293
  atomic energy  EATOM  =      9226.83509577
  Solvation  Ediel_sol  =         0.00000000
  ---------------------------------------------------
  free energy    TOTEN  =      -604.96455891 eV

  energy without entropy =     -604.96455859  energy(sigma->0) =     -604.96455875


--------------------------------------------------------------------------------------------------------




--------------------------------------- Iteration      1(  11)  ---------------------------------------


    POTLOK:  cpu time    0.4022: real time    0.4027
    SETDIJ:  cpu time    0.0108: real time    0.0108
     EDDAV:  cpu time   24.3567: real time   24.3567
       DOS:  cpu time    0.0004: real time    0.0004
    CHARGE:  cpu time    1.2182: real time    1.2182
    MIXING:  cpu time    0.0106: real time    0.0106
    --------------------------------------------
      LOOP:  cpu time   25.9988: real time   25.9994

 eigenvalue-minimisations  :  1512
 total energy-change (2. order) :-0.4394188E-01  (-0.6418506E-02)
 number of electron     269.9999973 magnetization 
 augmentation part        4.4620923 magnetization 

 Broyden mixing:
  rms(total) = 0.15952E-01    rms(broyden)= 0.15935E-01
  rms(prec ) = 0.25291E-01
  weight for this iteration     100.00

 eigenvalues of (default mixing * dielectric matrix)
  average eigenvalue GAMMA=   2.2237
  5.0755  2.4189  2.1974  0.9627  1.2982  1.3898

 Free energy of the ion-electron system (eV)
  ---------------------------------------------------
  alpha Z        PSCENC =       231.11290580
  Ewald energy   TEWEN  =      6302.44197409
  -Hartree energ DENC   =    -14812.82912465
  -exchange      EXHF   =         0.00000000
  -V(xc)+E(xc)   XCENC  =       864.24108842
  PAW double counting   =     26051.45286624   -26074.20138065
  entropy T*S    EENTRO =        -0.00000054
  eigenvalues    EBANDS =     -2394.06192527
  atomic energy  EATOM  =      9226.83509577
  Solvation  Ediel_sol  =         0.00000000
  ---------------------------------------------------
  free energy    TOTEN  =      -605.00850079 eV

  energy without entropy =     -605.00850024  energy(sigma->0) =     -605.00850052


--------------------------------------------------------------------------------------------------------




--------------------------------------- Iteration      1(  12)  ---------------------------------------


    POTLOK:  cpu time    0.4011: real time    0.4020
    SETDIJ:  cpu time    0.0108: real time    0.0108
     EDDAV:  cpu time   24.6536: real time   24.6535
       DOS:  cpu time    0.0004: real time    0.0004
    CHARGE:  cpu time    1.2103: real time    1.2103
    MIXING:  cpu time    0.0104: real time    0.0104
    --------------------------------------------
      LOOP:  cpu time   26.2866: real time   26.2874

 eigenvalue-minimisations  :  1536
 total energy-change (2. order) :-0.2698716E-01  (-0.4743225E-03)
 number of electron     269.9999973 magnetization 
 augmentation part        4.4608520 magnetization 

 Broyden mixing:
  rms(total) = 0.80130E-02    rms(broyden)= 0.80065E-02
  rms(prec ) = 0.11711E-01
  weight for this iteration     100.00

 eigenvalues of (default mixing * dielectric matrix)
  average eigenvalue GAMMA=   2.3638
  5.9296  2.7589  2.4423  1.9695  1.0016  1.2225  1.2225

 Free energy of the ion-electron system (eV)
  ---------------------------------------------------
  alpha Z        PSCENC =       231.11290580
  Ewald energy   TEWEN  =      6302.44197409
  -Hartree energ DENC   =    -14821.48035735
  -exchange      EXHF   =         0.00000000
  -V(xc)+E(xc)   XCENC  =       864.32980996
  PAW double counting   =     26032.34606415   -26055.10134945
  entropy T*S    EENTRO =        -0.00000063
  eigenvalues    EBANDS =     -2385.51963029
  atomic energy  EATOM  =      9226.83509577
  Solvation  Ediel_sol  =         0.00000000
  ---------------------------------------------------
  free energy    TOTEN  =      -605.03548795 eV

  energy without entropy =     -605.03548731  energy(sigma->0) =     -605.03548763


--------------------------------------------------------------------------------------------------------




--------------------------------------- Iteration      1(  13)  ---------------------------------------


    POTLOK:  cpu time    0.4021: real time    0.4021
    SETDIJ:  cpu time    0.0109: real time    0.0109
     EDDAV:  cpu time   25.3729: real time   25.3728
       DOS:  cpu time    0.0004: real time    0.0004
    CHARGE:  cpu time    1.2141: real time    1.2141
    MIXING:  cpu time    0.0110: real time    0.0110
    --------------------------------------------
      LOOP:  cpu time   27.0113: real time   27.0112

 eigenvalue-minimisations  :  1596
 total energy-change (2. order) :-0.1355855E-01  (-0.1127525E-03)
 number of electron     269.9999973 magnetization 
 augmentation part        4.4605968 magnetization 

 Broyden mixing:
  rms(total) = 0.19836E-02    rms(broyden)= 0.19828E-02
  rms(prec ) = 0.26187E-02
  weight for this iteration     100.00

 eigenvalues of (default mixing * dielectric matrix)
  average eigenvalue GAMMA=   2.3286
  6.2661  3.0483  2.4270  2.0752  1.0333  1.0555  1.4345  1.2888

 Free energy of the ion-electron system (eV)
  ---------------------------------------------------
  alpha Z        PSCENC =       231.11290580
  Ewald energy   TEWEN  =      6302.44197409
  -Hartree energ DENC   =    -14820.72412441
  -exchange      EXHF   =         0.00000000
  -V(xc)+E(xc)   XCENC  =       864.22766254
  PAW double counting   =     26043.75185695   -26066.50159326
  entropy T*S    EENTRO =        -0.00000060
  eigenvalues    EBANDS =     -2386.19282339
  atomic energy  EATOM  =      9226.83509577
  Solvation  Ediel_sol  =         0.00000000
  ---------------------------------------------------
  free energy    TOTEN  =      -605.04904650 eV

  energy without entropy =     -605.04904590  energy(sigma->0) =     -605.04904620


--------------------------------------------------------------------------------------------------------




--------------------------------------- Iteration      1(  14)  ---------------------------------------


    POTLOK:  cpu time    0.4018: real time    0.4025
    SETDIJ:  cpu time    0.0108: real time    0.0108
     EDDAV:  cpu time   24.3555: real time   24.3554
       DOS:  cpu time    0.0004: real time    0.0003
    CHARGE:  cpu time    1.2116: real time    1.2116
    MIXING:  cpu time    0.0110: real time    0.0110
    --------------------------------------------
      LOOP:  cpu time   25.9911: real time   25.9917

 eigenvalue-minimisations  :  1512
 total energy-change (2. order) :-0.1404596E-02  (-0.7570723E-05)
 number of electron     269.9999973 magnetization 
 augmentation part        4.4606171 magnetization 

 Broyden mixing:
  rms(total) = 0.79003E-03    rms(broyden)= 0.78999E-03
  rms(prec ) = 0.97687E-03
  weight for this iteration     100.00

 eigenvalues of (default mixing * dielectric matrix)
  average eigenvalue GAMMA=   2.3118
  6.3639  3.2946  2.3940  2.3300  1.9477  0.9762  1.0232  1.2384  1.2384

 Free energy of the ion-electron system (eV)
  ---------------------------------------------------
  alpha Z        PSCENC =       231.11290580
  Ewald energy   TEWEN  =      6302.44197409
  -Hartree energ DENC   =    -14820.68048529
  -exchange      EXHF   =         0.00000000
  -V(xc)+E(xc)   XCENC  =       864.21505981
  PAW double counting   =     26049.48258287   -26072.22745784
  entropy T*S    EENTRO =        -0.00000059
  eigenvalues    EBANDS =     -2386.23012571
  atomic energy  EATOM  =      9226.83509577
  Solvation  Ediel_sol  =         0.00000000
  ---------------------------------------------------
  free energy    TOTEN  =      -605.05045109 eV

  energy without entropy =     -605.05045050  energy(sigma->0) =     -605.05045080


--------------------------------------------------------------------------------------------------------




--------------------------------------- Iteration      1(  15)  ---------------------------------------


    POTLOK:  cpu time    0.4019: real time    0.4031
    SETDIJ:  cpu time    0.0108: real time    0.0108
     EDDAV:  cpu time   25.1027: real time   25.1026
       DOS:  cpu time    0.0004: real time    0.0004
    CHARGE:  cpu time    1.2136: real time    1.2136
    MIXING:  cpu time    0.0118: real time    0.0118
    --------------------------------------------
      LOOP:  cpu time   26.7411: real time   26.7423

 eigenvalue-minimisations  :  1572
 total energy-change (2. order) :-0.1861504E-03  (-0.1874568E-05)
 number of electron     269.9999973 magnetization 
 augmentation part        4.4605780 magnetization 

 Broyden mixing:
  rms(total) = 0.24448E-03    rms(broyden)= 0.24439E-03
  rms(prec ) = 0.28903E-03
  weight for this iteration     100.00

 eigenvalues of (default mixing * dielectric matrix)
  average eigenvalue GAMMA=   2.2709
  6.4002  3.3190  2.4681  2.4681  1.9546  1.6774  1.2181  1.2181  0.9927  0.9927

 Free energy of the ion-electron system (eV)
  ---------------------------------------------------
  alpha Z        PSCENC =       231.11290580
  Ewald energy   TEWEN  =      6302.44197409
  -Hartree energ DENC   =    -14820.75410353
  -exchange      EXHF   =         0.00000000
  -V(xc)+E(xc)   XCENC  =       864.21720485
  PAW double counting   =     26050.02004641   -26072.76497472
  entropy T*S    EENTRO =        -0.00000059
  eigenvalues    EBANDS =     -2386.15878532
  atomic energy  EATOM  =      9226.83509577
  Solvation  Ediel_sol  =         0.00000000
  ---------------------------------------------------
  free energy    TOTEN  =      -605.05063724 eV

  energy without entropy =     -605.05063665  energy(sigma->0) =     -605.05063695


--------------------------------------------------------------------------------------------------------




--------------------------------------- Iteration      1(  16)  ---------------------------------------


    POTLOK:  cpu time    0.4030: real time    0.4030
    SETDIJ:  cpu time    0.0110: real time    0.0110
     EDDAV:  cpu time   19.7927: real time   19.7927
       DOS:  cpu time    0.0004: real time    0.0004
    CHARGE:  cpu time    1.2113: real time    1.2113
    MIXING:  cpu time    0.0117: real time    0.0117
    --------------------------------------------
      LOOP:  cpu time   21.4300: real time   21.4300

 eigenvalue-minimisations  :  1128
 total energy-change (2. order) :-0.3326702E-04  (-0.1044168E-06)
 number of electron     269.9999973 magnetization 
 augmentation part        4.4605736 magnetization 

 Broyden mixing:
  rms(total) = 0.64991E-04    rms(broyden)= 0.64987E-04
  rms(prec ) = 0.80286E-04
  weight for this iteration     100.00

 eigenvalues of (default mixing * dielectric matrix)
  average eigenvalue GAMMA=   2.2322
  6.4262  3.3390  2.8248  2.4334  2.0882  1.9337  1.2345  1.2345  0.9974  0.9974
  1.0447

 Free energy of the ion-electron system (eV)
  ---------------------------------------------------
  alpha Z        PSCENC =       231.11290580
  Ewald energy   TEWEN  =      6302.44197409
  -Hartree energ DENC   =    -14820.75744837
  -exchange      EXHF   =         0.00000000
  -V(xc)+E(xc)   XCENC  =       864.21773964
  PAW double counting   =     26049.60537011   -26072.35023216
  entropy T*S    EENTRO =        -0.00000059
  eigenvalues    EBANDS =     -2386.15607480
  atomic energy  EATOM  =      9226.83509577
  Solvation  Ediel_sol  =         0.00000000
  ---------------------------------------------------
  free energy    TOTEN  =      -605.05067051 eV

  energy without entropy =     -605.05066992  energy(sigma->0) =     -605.05067022


--------------------------------------------------------------------------------------------------------




--------------------------------------- Iteration      1(  17)  ---------------------------------------


    POTLOK:  cpu time    0.4020: real time    0.4030
    SETDIJ:  cpu time    0.0109: real time    0.0109
     EDDAV:  cpu time   17.4994: real time   17.4993
       DOS:  cpu time    0.0003: real time    0.0003
    CHARGE:  cpu time    1.2111: real time    1.2111
    MIXING:  cpu time    0.0122: real time    0.0122
    --------------------------------------------
      LOOP:  cpu time   19.1359: real time   19.1368

 eigenvalue-minimisations  :   936
 total energy-change (2. order) :-0.4904072E-05  (-0.2629893E-07)
 number of electron     269.9999973 magnetization 
 augmentation part        4.4605759 magnetization 

 Broyden mixing:
  rms(total) = 0.21535E-04    rms(broyden)= 0.21527E-04
  rms(prec ) = 0.25425E-04
  weight for this iteration     100.00

 eigenvalues of (default mixing * dielectric matrix)
  average eigenvalue GAMMA=   2.2469
  6.4270  3.3625  2.8859  2.6342  2.1398  2.1398  1.9167  1.2168  1.2168  0.9844
  1.0192  1.0192

 Free energy of the ion-electron system (eV)
  ---------------------------------------------------
  alpha Z        PSCENC =       231.11290580
  Ewald energy   TEWEN  =      6302.44197409
  -Hartree energ DENC   =    -14820.77724013
  -exchange      EXHF   =         0.00000000
  -V(xc)+E(xc)   XCENC  =       864.21833952
  PAW double counting   =     26049.46123971   -26072.20611371
  entropy T*S    EENTRO =        -0.00000059
  eigenvalues    EBANDS =     -2386.13687587
  atomic energy  EATOM  =      9226.83509577
  Solvation  Ediel_sol  =         0.00000000
  ---------------------------------------------------
  free energy    TOTEN  =      -605.05067541 eV

  energy without entropy =     -605.05067482  energy(sigma->0) =     -605.05067512


--------------------------------------------------------------------------------------------------------




--------------------------------------- Iteration      1(  18)  ---------------------------------------


    POTLOK:  cpu time    0.4021: real time    0.4035
    SETDIJ:  cpu time    0.0109: real time    0.0109
     EDDAV:  cpu time   17.9433: real time   17.9433
       DOS:  cpu time    0.0004: real time    0.0004
    --------------------------------------------
      LOOP:  cpu time   18.3567: real time   18.3580

 eigenvalue-minimisations  :   972
 total energy-change (2. order) :-0.2945071E-06  (-0.4609595E-08)
 number of electron     269.9999973 magnetization 
 augmentation part        4.4605759 magnetization 

 Free energy of the ion-electron system (eV)
  ---------------------------------------------------
  alpha Z        PSCENC =       231.11290580
  Ewald energy   TEWEN  =      6302.44197409
  -Hartree energ DENC   =    -14820.77769377
  -exchange      EXHF   =         0.00000000
  -V(xc)+E(xc)   XCENC  =       864.21838995
  PAW double counting   =     26049.41376829   -26072.15867814
  entropy T*S    EENTRO =        -0.00000059
  eigenvalues    EBANDS =     -2386.13643711
  atomic energy  EATOM  =      9226.83509577
  Solvation  Ediel_sol  =         0.00000000
  ---------------------------------------------------
  free energy    TOTEN  =      -605.05067571 eV

  energy without entropy =     -605.05067512  energy(sigma->0) =     -605.05067541


--------------------------------------------------------------------------------------------------------




 average (electrostatic) potential at core
  the test charge radii are     0.7672  0.6991
  (the norm of the test charge is              1.0000)
       1 -33.2461       2 -33.2461       3 -33.2461       4 -33.2461       5 -33.2461
       6 -33.2461       7 -33.2461       8 -33.2461       9 -33.2461      10 -33.2461
      11 -33.2461      12 -33.2461      13 -33.2461      14 -33.2461      15 -33.2461
      16 -33.2461      17 -33.2461      18 -33.2461      19 -55.7473      20 -55.7473
      21 -55.7473      22 -55.7473      23 -55.7473      24 -55.7473      25 -55.7473
      26 -55.7473      27 -55.7473      28 -55.7473      29 -55.7473      30 -55.7473
      31 -55.7473      32 -55.7473      33 -55.7473      34 -55.7473      35 -55.7473
      36 -55.7473      37 -55.7473      38 -55.7473      39 -55.7473      40 -55.7473
      41 -55.7473      42 -55.7473      43 -55.7473      44 -55.7473      45 -55.7473
      46 -55.7473      47 -55.7473      48 -55.7473      49 -55.7473      50 -55.7473
      51 -55.7473      52 -55.7473      53 -55.7473      54 -55.7473      55 -55.7473
      56 -55.7473      57 -55.7473      58 -55.7473      59 -55.7473      60 -55.7473
      61 -55.7473      62 -55.7473      63 -55.7473      64 -55.7473      65 -55.7473
      66 -55.7473      67 -55.7473      68 -55.7473      69 -55.7473      70 -55.7473
      71 -55.7473      72 -55.7473
 
 
 
 E-fermi :  -2.1485     XC(G=0):  -4.8140     alpha+bet : -4.1680


 k-point     1 :       0.0000    0.0000    0.0000
  band No.  band energies     occupation 
      1     -18.5403      2.00000
      2     -18.1625      2.00000
      3     -18.1625      2.00000
      4     -18.1625      2.00000
      5     -18.1625      2.00000
      6     -18.1625      2.00000
      7     -18.1625      2.00000
      8     -17.8740      2.00000
      9     -17.8740      2.00000
     10     -15.9418      2.00000
     11     -15.9418      2.00000
     12     -15.9417      2.00000
     13     -15.9417      2.00000
     14     -15.8797      2.00000
     15     -15.8797      2.00000
     16     -15.8797      2.00000
     17     -15.8797      2.00000
     18     -15.8797      2.00000
     19     -15.8797      2.00000
     20     -15.0239      2.00000
     21     -15.0239      2.00000
     22     -15.0239      2.00000
     23     -15.0239      2.00000
     24     -15.0238      2.00000
     25     -15.0238      2.00000
     26     -14.6488      2.00000
     27     -14.6488      2.00000
     28     -12.7316      2.00000
     29     -12.7316      2.00000
     30     -12.7316      2.00000
     31     -12.7316      2.00000
     32     -12.7316      2.00000
     33     -12.7316      2.00000
     34     -12.2992      2.00000
     35     -12.2992      2.00000
     36     -11.5104      2.00000
     37     -11.5104      2.00000
     38     -11.5103      2.00000
     39     -11.5103      2.00000
     40     -11.2307      2.00000
     41     -11.1092      2.00000
     42     -11.1092      2.00000
     43     -11.1092      2.00000
     44     -11.1092      2.00000
     45     -11.1092      2.00000
     46     -11.1092      2.00000
     47      -9.9135      2.00000
     48      -9.5491      2.00000
     49      -9.5491      2.00000
     50      -9.5491      2.00000
     51      -9.5491      2.00000
     52      -9.5491      2.00000
     53      -9.5491      2.00000
     54      -9.5490      2.00000
     55      -9.5490      2.00000
     56      -8.0852      2.00000
     57      -8.0852      2.00000
     58      -8.0852      2.00000
     59      -8.0852      2.00000
     60      -8.0852      2.00000
     61      -8.0852      2.00000
     62      -8.0108      2.00000
     63      -8.0108      2.00000
     64      -8.0108      2.00000
     65      -8.0108      2.00000
     66      -8.0108      2.00000
     67      -8.0108      2.00000
     68      -7.3452      2.00000
     69      -7.1249      2.00000
     70      -7.0492      2.00000
     71      -7.0492      2.00000
     72      -7.0491      2.00000
     73      -7.0491      2.00000
     74      -6.7177      2.00000
     75      -6.7177      2.00000
     76      -6.7177      2.00000
     77      -6.7177      2.00000
     78      -6.7177      2.00000
     79      -6.7177      2.00000
     80      -6.6880      2.00000
     81      -6.6880      2.00000
     82      -6.5247      2.00000
     83      -6.5247      2.00000
     84      -6.5247      2.00000
     85      -6.5247      2.00000
     86      -6.5247      2.00000
     87      -6.5247      2.00000
     88      -6.0398      2.00000
     89      -6.0398      2.00000
     90      -5.9081      2.00000
     91      -5.9081      2.00000
     92      -4.9710      2.00000
     93      -4.9710      2.00000
     94      -4.9417      2.00000
     95      -4.9417      2.00000
     96      -4.9417      2.00000
     97      -4.9417      2.00000
     98      -4.9417      2.00000
     99      -4.9417      2.00000
    100      -4.8955      2.00000
    101      -4.8955      2.00000
    102      -4.8955      2.00000
    103      -4.8955      2.00000
    104      -4.8156      2.00000
    105      -4.8156      2.00000
    106      -4.8156      2.00000
    107      -4.8156      2.00000
    108      -4.6103      2.00000
    109      -4.6103      2.00000
    110      -4.6103      2.00000
    111      -4.6103      2.00000
    112      -4.6103      2.00000
    113      -4.6103      2.00000
    114      -4.3954      2.00000
    115      -4.3954      2.00000
    116      -4.3954      2.00000
    117      -4.3954      2.00000
    118      -4.3954      2.00000
    119      -4.3954      2.00000
    120      -3.3601      2.00000
    121      -3.3601      2.00000
    122      -3.3601      2.00000
    123      -3.3601      2.00000
    124      -3.3601      2.00000
    125      -3.3601      2.00000
    126      -3.3073      2.00000
    127      -3.3073      2.00000
    128      -3.3072      2.00000
    129      -3.3072      2.00000
    130      -3.3072      2.00000
    131      -3.3072      2.00000
    132      -3.1493      2.00000
    133      -3.1492      2.00000
    134      -2.4667      1.99999
    135      -2.4666      1.99999
    136      -1.6689      0.00000
    137      -1.6689      0.00000
    138      -1.6689      0.00000
    139      -1.6689      0.00000
    140      -1.6689      0.00000
    141      -1.6689      0.00000
    142      -0.6315      0.00000
    143      -0.0438      0.00000
    144      -0.0438      0.00000
    145      -0.0438      0.00000
    146      -0.0438      0.00000
    147       1.1011      0.00000
    148       1.1012      0.00000
    149       1.7888      0.00000
    150       1.7888      0.00000
    151       1.7888      0.00000
    152       1.7888      0.00000
    153       1.7888      0.00000
    154       1.7888      0.00000
    155       1.7906      0.00000
    156       1.9215      0.00000
    157       2.5685      0.00000
    158       2.5685      0.00000
    159       2.5685      0.00000
    160       2.5685      0.00000
    161       2.5685      0.00000
    162       2.5685      0.00000
    163       2.7428      0.00000
    164       2.7428      0.00000
    165       2.7428      0.00000
    166       2.7428      0.00000
    167       2.7428      0.00000
    168       2.7428      0.00000
    169       4.2903      0.00000
    170       4.2903      0.00000
    171       4.2903      0.00000
    172       4.2903      0.00000
    173       4.2904      0.00000
    174       4.2904      0.00000
    175       4.3570      0.00000
    176       4.3571      0.00000
    177       4.3795      0.00000
    178       4.3795      0.00000
    179       4.3795      0.00000
    180       4.3808      0.00000

 k-point     2 :       0.2500   -0.0000    0.0000
  band No.  band energies     occupation 
      1     -18.5132      2.00000
      2     -18.3111      2.00000
      3     -18.2215      2.00000
      4     -18.2215      2.00000
      5     -18.0756      2.00000
      6     -18.0756      2.00000
      7     -18.0272      2.00000
      8     -17.9035      2.00000
      9     -17.9035      2.00000
     10     -16.1629      2.00000
     11     -16.0734      2.00000
     12     -16.0734      2.00000
     13     -16.0252      2.00000
     14     -16.0252      2.00000
     15     -15.7140      2.00000
     16     -15.7140      2.00000
     17     -15.7004      2.00000
     18     -15.7004      2.00000
     19     -15.5025      2.00000
     20     -15.1634      2.00000
     21     -15.1633      2.00000
     22     -15.0939      2.00000
     23     -15.0616      2.00000
     24     -15.0616      2.00000
     25     -14.9178      2.00000
     26     -14.7809      2.00000
     27     -14.6912      2.00000
     28     -12.8160      2.00000
     29     -12.6404      2.00000
     30     -12.6404      2.00000
     31     -12.6026      2.00000
     32     -12.5469      2.00000
     33     -12.5469      2.00000
     34     -12.3384      2.00000
     35     -12.2008      2.00000
     36     -11.9033      2.00000
     37     -11.9033      2.00000
     38     -11.5471      2.00000
     39     -11.4383      2.00000
     40     -11.4383      2.00000
     41     -11.2357      2.00000
     42     -11.2356      2.00000
     43     -11.0961      2.00000
     44     -11.0116      2.00000
     45     -11.0116      2.00000
     46     -10.7080      2.00000
     47     -10.1724      2.00000
     48      -9.7531      2.00000
     49      -9.7295      2.00000
     50      -9.7295      2.00000
     51      -9.3725      2.00000
     52      -9.3725      2.00000
     53      -9.0961      2.00000
     54      -9.0961      2.00000
     55      -8.9042      2.00000
     56      -8.7139      2.00000
     57      -8.4816      2.00000
     58      -8.3956      2.00000
     59      -8.3956      2.00000
     60      -8.3073      2.00000
     61      -8.3073      2.00000
     62      -7.9559      2.00000
[...]
    106       0.0000      0.00000
    107       0.0000      0.00000
    108       0.0000      0.00000
    109       0.0000      0.00000
    110       0.0000      0.00000
    111       0.0000      0.00000
    112       0.0000      0.00000
    113       0.0000      0.00000
    114       0.0000      0.00000
    115       0.0000      0.00000
    116       0.0000      0.00000
    117       0.0000      0.00000
    118       0.0000      0.00000
    119       0.0000      0.00000
    120       0.0000      0.00000
    121       0.0000      0.00000
    122       0.0000      0.00000
    123       0.0000      0.00000
    124       0.0000      0.00000
    125       0.0000      0.00000
    126       0.0000      0.00000
    127       0.0000      0.00000
    128       0.0000      0.00000
    129       0.0000      0.00000
    130       0.0000      0.00000
    131       0.0000      0.00000
    132       0.0000      0.00000
    133       0.0000      0.00000
    134       0.0000      0.00000
    135       0.0000      0.00000
    136       0.0000      0.00000
    137       0.0000      0.00000
    138       0.0000      0.00000
    139       0.0000      0.00000
    140       0.0000      0.00000
    141       0.0000      0.00000
    142       0.0000      0.00000
    143       0.0000      0.00000
    144       0.0000      0.00000
    145       0.0000      0.00000
    146       0.0000      0.00000
    147       0.0000      0.00000
    148       0.0000      0.00000
    149       0.0000      0.00000
    150       0.0000      0.00000
    151       0.0000      0.00000
    152       0.0000      0.00000
    153       0.0000      0.00000
    154       0.0000      0.00000
    155      -0.0000      0.00000
    156       0.0000      0.00000
    157      -0.0000      0.00000
    158      -0.0000      0.00000
    159       0.0000      0.00000
    160       0.0000      0.00000
    161       0.0000      0.00000
    162       0.0000      0.00000
    163      -0.0000      0.00000
    164      -0.0000      0.00000
    165      -0.0000      0.00000
    166       0.0000      0.00000
    167       0.0000      0.00000
    168      -0.0000      0.00000
    169      -0.0000      0.00000
    170       0.0000      0.00000
    171       0.0000      0.00000
    172      -0.0000      0.00000
    173      -0.0000      0.00000
    174       0.0000      0.00000
    175      -0.0000      0.00000
    176      -0.0000      0.00000
    177      -0.0000      0.00000
    178       0.0000      0.00000
    179      -0.0000      0.00000
    180       0.0000      0.00000


------------------------ aborting loop because EDIFF is reached ----------------------------------------


    FORLOC:  cpu time    0.1707: real time    0.1707
    FORNL :  cpu time   11.2972: real time   11.2971
    STRESS:  cpu time   22.9378: real time   22.9377
    FORCOR:  cpu time    0.5486: real time    0.5486
    OFIELD:  cpu time    0.0015: real time    0.0015
    FORLOC:  cpu time    0.1705: real time    0.1705
    FORNL :  cpu time   11.2966: real time   11.2966
    STRESS:  cpu time   22.8987: real time   22.8986
    FORCOR:  cpu time    0.5483: real time    0.5483
    OFIELD:  cpu time    0.0014: real time    0.0014
    FORLOC:  cpu time    0.1703: real time    0.1702
    FORNL :  cpu time   11.2927: real time   11.2927
    STRESS:  cpu time   22.9125: real time   22.9123
    FORCOR:  cpu time    0.5470: real time    0.5470
    OFIELD:  cpu time    0.0014: real time    0.0014
    FORLOC:  cpu time    0.1704: real time    0.1704
    FORNL :  cpu time   11.2828: real time   11.2828
    STRESS:  cpu time   22.9089: real time   22.9087
    FORCOR:  cpu time    0.5498: real time    0.5498
    OFIELD:  cpu time    0.0015: real time    0.0015

 INTERNAL STRAIN TENSOR  FOR ION    1  DIRECTION 3   (eV/Angst):
 -----------------------------------------------------------------------------
     0.00001  0.00000 -0.00000
     0.00000  0.00001  0.00000
    -0.00000  0.00000  0.00004


 POSITION                   FORCE-CONSTANT FOR ION    1 DIRECTION 3 (eV/Angst/Angst)
 -----------------------------------------------------------------------------------
     -1.49361      2.58702      2.13006         0.000000      0.000000    -12.397738
      2.98723      5.17404      2.13006        -0.000000     -0.000001     -0.013006
      7.46808      7.76105      2.13006         0.000001     -0.000000     -0.013006
     -5.97446      5.17404      2.13006         0.000001      0.000000     -0.013006
     -1.49361      7.76105      2.13006        -0.000001     -0.000001     -0.013006
      2.98723     10.34807      2.13006         0.000000      0.000000     -0.000990
    -10.45531      7.76105      2.13006        -0.000000      0.000001     -0.013006
     -5.97446     10.34807      2.13006        -0.000000      0.000000     -0.001260
     -1.49361     12.93509      2.13006        -0.000001      0.000001     -0.013006
      1.49361      2.58702      2.13006        -0.000001      0.000000      0.397387
      5.97446      5.17404      2.13006         0.000001     -0.000001      0.019036
     10.45531      7.76105      2.13006         0.000001      0.000001      0.397387
     -2.98723      5.17404      2.13006         0.000001     -0.000001      0.397387
      1.49361      7.76105      2.13006        -0.000000     -0.000000      0.115105
      5.97446     10.34807      2.13006         0.000001      0.000000      0.115105
     -7.46808      7.76105      2.13006         0.000001      0.000001      0.019036
     -2.98723     10.34807      2.13006        -0.000001      0.000000      0.019036
      1.49361     12.93509      2.13006        -0.000000      0.000000      0.115105
     -0.71108      1.23161      2.13006         0.000010     -0.000017      5.328345
      3.76977      3.81863      2.13006         0.000001      0.000001     -0.008862
      8.25062      6.40565      2.13006        -0.000001      0.000000     -0.008862
     -5.19192      3.81863      2.13006        -0.000000      0.000001     -0.625060
     -0.71108      6.40565      2.13006        -0.000000      0.000001     -0.625060
      3.76977      8.99267      2.13006        -0.000000      0.000001      0.006881
     -9.67277      6.40565      2.13006         0.000001     -0.000000     -0.009125
     -5.19192      8.99267      2.13006        -0.000000      0.000001     -0.013621
     -0.71108     11.57969      2.13006        -0.000000     -0.000001     -0.009125
      0.71108      1.23161      2.13006        -0.000009      0.000002     -0.312522
      5.19192      3.81863      2.13006         0.000000      0.000000     -0.000830
      9.67277      6.40565      2.13006         0.000000      0.000000     -0.012340
     -3.76977      3.81863      2.13006         0.000006     -0.000007     -0.312522
      0.71108      6.40565      2.13006         0.000001      0.000001      0.252670
      5.19192      8.99267      2.13006         0.000001     -0.000001     -0.035257
     -8.25062      6.40565      2.13006        -0.000000     -0.000000      0.049192
     -3.76977      8.99267      2.13006        -0.000000      0.000000     -0.000830
      0.71108     11.57969      2.13006        -0.000001      0.000000     -0.035257
     -3.05870      2.58702      2.13006        -0.000019      0.000000      5.328345
      1.42215      5.17404      2.13006         0.000001      0.000000     -0.625060
      5.90300      7.76105      2.13006        -0.000001     -0.000000     -0.009125
     -7.53955      5.17404      2.13006        -0.000001      0.000000     -0.009125
     -3.05870      7.76105      2.13006         0.000001      0.000001     -0.008862
      1.42215     10.34807      2.13006         0.000001      0.000000      0.006881
    -12.02040      7.76105      2.13006         0.000001     -0.000000     -0.625060
     -7.53955     10.34807      2.13006         0.000001      0.000000     -0.013621
     -3.05870     12.93509      2.13006         0.000001     -0.000001     -0.008862
      3.05870      2.58702      2.13006        -0.000000      0.000000     -0.012340
      7.53955      5.17404      2.13006        -0.000000     -0.000000     -0.000830
     12.02040      7.76105      2.13006         0.000003      0.000008     -0.312522
     -1.42215      5.17404      2.13006         0.000003     -0.000008     -0.312522
      3.05870      7.76105      2.13006         0.000000     -0.000001     -0.035257
      7.53955     10.34807      2.13006        -0.000001      0.000000      0.252670
     -5.90300      7.76105      2.13006        -0.000000      0.000000     -0.000830
     -1.42215     10.34807      2.13006         0.000000     -0.000000      0.049192
      3.05870     12.93509      2.13006         0.000000      0.000001     -0.035257
     -0.71108      3.94242      2.13006         0.000010      0.000017      5.328345
      3.76977      6.52944      2.13006         0.000001      0.000000     -0.009125
      8.25062      9.11646      2.13006        -0.000000     -0.000001     -0.625060
     -5.19192      6.52944      2.13006        -0.000001     -0.000000     -0.008862
     -0.71108      9.11646      2.13006        -0.000000      0.000001     -0.009125
      3.76977     11.70347      2.13006        -0.000000     -0.000001      0.006881
     -9.67277      9.11646      2.13006         0.000001     -0.000001     -0.008862
     -5.19192     11.70347      2.13006        -0.000000     -0.000001     -0.013621
     -0.71108     14.29049      2.13006        -0.000000     -0.000001     -0.625060
      0.71108      3.94242      2.13006        -0.000009     -0.000002     -0.312522
      5.19192      6.52944      2.13006        -0.000000      0.000000      0.049192
      9.67277      9.11646      2.13006         0.000006      0.000007     -0.312522
     -3.76977      6.52944      2.13006         0.000000     -0.000000     -0.012340
      0.71108      9.11646      2.13006        -0.000001     -0.000000     -0.035257
      5.19192     11.70347      2.13006         0.000001      0.000001     -0.035257
     -8.25062      9.11646      2.13006         0.000000     -0.000000     -0.000830
     -3.76977     11.70347      2.13006        -0.000000     -0.000000     -0.000830
      0.71108     14.29049      2.13006         0.000001     -0.000001      0.252670
 -----------------------------------------------------------------------------------
    total drift:                                0.000000      0.000000     -0.000000




--------------------------------------------------------------------------------------------------------


 Linear response progress:
  Degree of freedom:   3/  4
  LATTYP: Found a hexagonal cell.
 ALAT       =    15.5221131104
 C/A-ratio  =     0.5489086015
  
  Lattice vectors:
  
 A1 = (  13.4425453021,   7.7610565552,   0.0000000000)
 A2 = ( -13.4425453021,   7.7610565552,   0.0000000000)
 A3 = (   0.0000000000,   0.0000000000,   8.5202213998)


Analysis of symmetry for initial positions (statically):
=====================================================================
 Subroutine PRICEL returns following result:
 
  LATTYP: Found a hexagonal cell.
 ALAT       =     5.1740377035
 C/A-ratio  =     1.6467258045
  
  Lattice vectors:
  
 A1 = (   4.4808484340,   2.5870188517,   0.0000000000)
 A2 = (  -4.4808484340,   2.5870188517,   0.0000000000)
 A3 = (   0.0000000000,   0.0000000000,   8.5202213998)
 
   9 primitive cells build up your supercell.
 

 Routine SETGRP: Setting up the symmetry group for a 
 hexagonal supercell.


 Subroutine GETGRP returns: Found 24 space group operations
 (whereof 12 operations were pure point group operations)
 out of a pool of 24 trial point group operations.


The static configuration has the point symmetry C_6v.
 The point group associated with its full space group is D_6h.


Analysis of symmetry for dynamics (positions and initial velocities):
=====================================================================
 Subroutine PRICEL returns:
 Original cell was already a primitive cell.
 

 Routine SETGRP: Setting up the symmetry group for a 
 hexagonal supercell.


 Subroutine GETGRP returns: Found  2 space group operations
 (whereof  1 operations were pure point group operations)
 out of a pool of 24 trial point group operations.


The dynamic configuration has the point symmetry C_1 .
 The point group associated with its full space group is C_1h.


 Subroutine INISYM returns: Found  2 space group operations
 (whereof  1 operations are pure point group operations),
 and found     1 'primitive' translations



----------------------------------------- Iteration   58(   1)  ---------------------------------------


   POT+DIJ:  cpu time    1.9300: real time    1.9300
    HAMIL1:  cpu time   12.9574: real time   12.9576
    LRDIAG:  cpu time    1.7692: real time    1.7692
    LRDIIS:  cpu time   94.9423: real time   94.9418
    LRDIAG:  cpu time    1.7982: real time    1.7984
    --------------------------------------------
      LOOP:  cpu time  113.3983: real time  113.3982

 Free energy of the ion-electron system (eV)
  ---------------------------------------------------
  -Hartree energ DENC   =        -0.02708849
  -V(xc)+E(xc)   XCENC  =         0.00611579
  PAW double counting   =         0.00000000        0.00000000
  entropy T*S    EENTRO =         0.00000000
  eigenvalues    EBANDS =        -0.12828079
  ---------------------------------------------------
  free energy    TOTEN  =        -0.14925349 eV

  energy without entropy =       -0.14925349


----------------------------------------- Iteration   58(   2)  ---------------------------------------


   POT+DIJ:  cpu time    1.9380: real time    1.9380
    HAMIL1:  cpu time   12.6505: real time   12.6507
    LRDIAG:  cpu time    1.7711: real time    1.7711
    LRDIIS:  cpu time   57.6197: real time   57.6194
    LRDIAG:  cpu time    1.7993: real time    1.7995
    MIXING:  cpu time    0.0091: real time    0.0091
    --------------------------------------------
      LOOP:  cpu time   80.5936: real time   80.5936

 Broyden mixing:
  rms(total) = 0.13346E+01    rms(broyden)= 0.13308E+01
  rms(prec ) = 0.15805E+01
  weight for this iteration     100.00

 Free energy of the ion-electron system (eV)
  ---------------------------------------------------
  -Hartree energ DENC   =        -0.02708849
  -V(xc)+E(xc)   XCENC  =         0.00611579
  PAW double counting   =         0.00000000        0.00000000
  entropy T*S    EENTRO =         0.00000000
  eigenvalues    EBANDS =        -0.10744704
  ---------------------------------------------------
  free energy    TOTEN  =        -0.12841974 eV

  energy without entropy =       -0.12841974


----------------------------------------- Iteration   58(   3)  ---------------------------------------


   POT+DIJ:  cpu time    1.9323: real time    1.9324
    HAMIL1:  cpu time   13.0585: real time   13.0586
    LRDIAG:  cpu time    1.7709: real time    1.7709
    LRDIIS:  cpu time   53.6694: real time   53.6692
    LRDIAG:  cpu time    1.7135: real time    1.7138
    MIXING:  cpu time    0.0095: real time    0.0095
    --------------------------------------------
      LOOP:  cpu time   76.9452: real time   76.9453

 Broyden mixing:
  rms(total) = 0.64944E+00    rms(broyden)= 0.64908E+00
  rms(prec ) = 0.70794E+00
  weight for this iteration     100.00

 eigenvalues of (default mixing * dielectric matrix)
  average eigenvalue GAMMA=   1.4029
  1.4029

 Free energy of the ion-electron system (eV)
  ---------------------------------------------------
  -Hartree energ DENC   =        -0.03424724
  -V(xc)+E(xc)   XCENC  =         0.00726322
  PAW double counting   =         0.01411771       -0.01411568
  entropy T*S    EENTRO =         0.00000000
  eigenvalues    EBANDS =        -0.09953061
  ---------------------------------------------------
  free energy    TOTEN  =        -0.12651260 eV

  energy without entropy =       -0.12651260


----------------------------------------- Iteration   58(   4)  ---------------------------------------


   POT+DIJ:  cpu time    1.9324: real time    1.9324
    HAMIL1:  cpu time   12.8849: real time   12.8850
    LRDIAG:  cpu time    1.7688: real time    1.7688
    LRDIIS:  cpu time   54.3630: real time   54.3627
    LRDIAG:  cpu time    1.7213: real time    1.7215
    MIXING:  cpu time    0.0098: real time    0.0098
    --------------------------------------------
      LOOP:  cpu time   77.4604: real time   77.4605

 Broyden mixing:
  rms(total) = 0.28678E+00    rms(broyden)= 0.28675E+00
  rms(prec ) = 0.30578E+00
  weight for this iteration     100.00

 eigenvalues of (default mixing * dielectric matrix)
  average eigenvalue GAMMA=   1.6468
  1.0769  2.2166

 Free energy of the ion-electron system (eV)
  ---------------------------------------------------
  -Hartree energ DENC   =        -0.03709997
  -V(xc)+E(xc)   XCENC  =         0.00798881
  PAW double counting   =         0.04290366       -0.04289768
  entropy T*S    EENTRO =         0.00000000
  eigenvalues    EBANDS =        -0.09714512
  ---------------------------------------------------
  free energy    TOTEN  =        -0.12625030 eV

  energy without entropy =       -0.12625030


----------------------------------------- Iteration   58(   5)  ---------------------------------------


   POT+DIJ:  cpu time    1.9361: real time    1.9361
    HAMIL1:  cpu time   13.0288: real time   13.0289
    LRDIAG:  cpu time    1.7764: real time    1.7764
    LRDIIS:  cpu time   52.8308: real time   52.8305
    LRDIAG:  cpu time    1.7145: real time    1.7148
    MIXING:  cpu time    0.0099: real time    0.0099
    --------------------------------------------
      LOOP:  cpu time   76.0834: real time   76.0835

 Broyden mixing:
  rms(total) = 0.50240E-01    rms(broyden)= 0.50226E-01
  rms(prec ) = 0.56113E-01
  weight for this iteration     100.00

 eigenvalues of (default mixing * dielectric matrix)
  average eigenvalue GAMMA=   1.6130
  2.3509  1.1100  1.3781

 Free energy of the ion-electron system (eV)
  ---------------------------------------------------
  -Hartree energ DENC   =        -0.03844431
  -V(xc)+E(xc)   XCENC  =         0.00843806
  PAW double counting   =         0.07508569       -0.07507577
  entropy T*S    EENTRO =         0.00000000
  eigenvalues    EBANDS =        -0.09618602
  ---------------------------------------------------
  free energy    TOTEN  =        -0.12618234 eV

  energy without entropy =       -0.12618234


----------------------------------------- Iteration   58(   6)  ---------------------------------------


   POT+DIJ:  cpu time    1.9295: real time    1.9295
    HAMIL1:  cpu time   12.8468: real time   12.8469
    LRDIAG:  cpu time    1.7751: real time    1.7751
    LRDIIS:  cpu time   56.8771: real time   56.8771
    LRDIAG:  cpu time    1.7207: real time    1.7209
    MIXING:  cpu time    0.0106: real time    0.0106
    --------------------------------------------
      LOOP:  cpu time   79.9336: real time   79.9341

 Broyden mixing:
  rms(total) = 0.15382E-01    rms(broyden)= 0.15378E-01
  rms(prec ) = 0.18021E-01
  weight for this iteration     100.00

 eigenvalues of (default mixing * dielectric matrix)
  average eigenvalue GAMMA=   1.6026
  1.0536  1.0536  2.4744  1.8286

 Free energy of the ion-electron system (eV)
  ---------------------------------------------------
  -Hartree energ DENC   =        -0.03834895
  -V(xc)+E(xc)   XCENC  =         0.00843012
  PAW double counting   =         0.08082214       -0.08081197
  entropy T*S    EENTRO =         0.00000000
  eigenvalues    EBANDS =        -0.09627134
  ---------------------------------------------------
  free energy    TOTEN  =        -0.12617999 eV

  energy without entropy =       -0.12617999


----------------------------------------- Iteration   58(   7)  ---------------------------------------


   POT+DIJ:  cpu time    1.9281: real time    1.9281
    HAMIL1:  cpu time   12.9756: real time   12.9758
    LRDIAG:  cpu time    1.7719: real time    1.7719
