phonopy:
  version: "2.19.1"
  frequency_unit_conversion_factor: 15.633302
  symmetry_tolerance: 1.00000e-05
  configuration:
    cell_filename: "POSCAR-unitcell"
    create_displacements: ".true."
    dim: "6 6 1"

physical_unit:
  atomic_mass: "AMU"
  length: "angstrom"
  force_constants: "eV/angstrom^2"

space_group:
  type: "P6/mmm"
  number: 191
  Hall_symbol: "-P 6 2"

supercell_matrix:
- [   6,   0,   0 ]
- [   0,   6,   0 ]
- [   0,   0,   1 ]

primitive_cell:
  lattice:
  - [     4.480848434025150,     2.587018851738510,     0.000000000000000 ] # a
  - [    -4.480848434025150,     2.587018851738510,     0.000000000000000 ] # b
  - [     0.000000000000000,     0.000000000000000,     8.520221399839757 ] # c
  points:
  - symbol: B  # 1
    coordinates: [  0.333333000000003,  0.666665999999999,  0.250000000000000 ]
    mass: 10.811000
  - symbol: B  # 2
    coordinates: [  0.666665999999999,  0.333333000000003,  0.250000000000000 ]
    mass: 10.811000
  - symbol: C  # 3
    coordinates: [  0.158691242177568,  0.317383484387676,  0.250000000000000 ]
    mass: 12.010700
  - symbol: C  # 4
    coordinates: [  0.317383484387676,  0.158691242177568,  0.250000000000000 ]
    mass: 12.010700
  - symbol: C  # 5
    coordinates: [  0.158691242210104,  0.841307757789899,  0.250000000000000 ]
    mass: 12.010700
  - symbol: C  # 6
    coordinates: [  0.841307757789899,  0.158691242210104,  0.250000000000000 ]
    mass: 12.010700
  - symbol: C  # 7
    coordinates: [  0.682615515612326,  0.841307757822435,  0.250000000000000 ]
    mass: 12.010700
  - symbol: C  # 8
    coordinates: [  0.841307757822435,  0.682615515612326,  0.250000000000000 ]
    mass: 12.010700
  reciprocal_lattice: # without 2pi
  - [     0.111586010408937,     0.193272654222830,     0.000000000000000 ] # a*
  - [    -0.111586010408937,     0.193272654222830,     0.000000000000000 ] # b*
  - [     0.000000000000000,     0.000000000000000,     0.117367842110160 ] # c*

unit_cell:
  lattice:
  - [     4.480848434025150,     2.587018851738510,     0.000000000000000 ] # a
  - [    -4.480848434025150,     2.587018851738510,     0.000000000000000 ] # b
  - [     0.000000000000000,     0.000000000000000,     8.520221399839757 ] # c
  points:
  - symbol: B  # 1
    coordinates: [  0.333333000000003,  0.666665999999999,  0.250000000000000 ]
    mass: 10.811000
    reduced_to: 1
  - symbol: B  # 2
    coordinates: [  0.666665999999999,  0.333333000000003,  0.250000000000000 ]
    mass: 10.811000
    reduced_to: 2
  - symbol: C  # 3
    coordinates: [  0.158691242177568,  0.317383484387676,  0.250000000000000 ]
    mass: 12.010700
    reduced_to: 3
  - symbol: C  # 4
    coordinates: [  0.317383484387676,  0.158691242177568,  0.250000000000000 ]
    mass: 12.010700
    reduced_to: 4
  - symbol: C  # 5
    coordinates: [  0.158691242210104,  0.841307757789899,  0.250000000000000 ]
    mass: 12.010700
    reduced_to: 5
  - symbol: C  # 6
    coordinates: [  0.841307757789899,  0.158691242210104,  0.250000000000000 ]
    mass: 12.010700
    reduced_to: 6
  - symbol: C  # 7
    coordinates: [  0.682615515612326,  0.841307757822435,  0.250000000000000 ]
    mass: 12.010700
    reduced_to: 7
  - symbol: C  # 8
    coordinates: [  0.841307757822435,  0.682615515612326,  0.250000000000000 ]
    mass: 12.010700
    reduced_to: 8

supercell:
  lattice:
  - [    26.885090604150900,    15.522113110431063,     0.000000000000000 ] # a
  - [   -26.885090604150900,    15.522113110431063,     0.000000000000000 ] # b
  - [     0.000000000000000,     0.000000000000000,     8.520221399839757 ] # c
  points:
  - symbol: B  # 1
    coordinates: [  0.055555500000001,  0.111111000000000,  0.250000000000000 ]
    mass: 10.811000
    reduced_to: 1
  - symbol: B  # 2
    coordinates: [  0.222222166666667,  0.111111000000000,  0.250000000000000 ]
    mass: 10.811000
    reduced_to: 1
  - symbol: B  # 3
    coordinates: [  0.388888833333334,  0.111111000000000,  0.250000000000000 ]
    mass: 10.811000
    reduced_to: 1
  - symbol: B  # 4
    coordinates: [  0.555555500000001,  0.111111000000000,  0.250000000000000 ]
    mass: 10.811000
    reduced_to: 1
  - symbol: B  # 5
    coordinates: [  0.722222166666667,  0.111111000000000,  0.250000000000000 ]
    mass: 10.811000
    reduced_to: 1
  - symbol: B  # 6
    coordinates: [  0.888888833333334,  0.111111000000000,  0.250000000000000 ]
    mass: 10.811000
    reduced_to: 1
  - symbol: B  # 7
    coordinates: [  0.055555500000001,  0.277777666666667,  0.250000000000000 ]
    mass: 10.811000
    reduced_to: 1
  - symbol: B  # 8
    coordinates: [  0.222222166666667,  0.277777666666667,  0.250000000000000 ]
    mass: 10.811000
    reduced_to: 1
  - symbol: B  # 9
    coordinates: [  0.388888833333334,  0.277777666666667,  0.250000000000000 ]
    mass: 10.811000
    reduced_to: 1
  - symbol: B  # 10
    coordinates: [  0.555555500000001,  0.277777666666667,  0.250000000000000 ]
    mass: 10.811000
    reduced_to: 1
  - symbol: B  # 11
    coordinates: [  0.722222166666667,  0.277777666666667,  0.250000000000000 ]
    mass: 10.811000
    reduced_to: 1
  - symbol: B  # 12
    coordinates: [  0.888888833333334,  0.277777666666667,  0.250000000000000 ]
    mass: 10.811000
    reduced_to: 1
  - symbol: B  # 13
    coordinates: [  0.055555500000001,  0.444444333333333,  0.250000000000000 ]
    mass: 10.811000
    reduced_to: 1
  - symbol: B  # 14
    coordinates: [  0.222222166666667,  0.444444333333333,  0.250000000000000 ]
    mass: 10.811000
    reduced_to: 1
  - symbol: B  # 15
    coordinates: [  0.388888833333334,  0.444444333333333,  0.250000000000000 ]
    mass: 10.811000
    reduced_to: 1
  - symbol: B  # 16
    coordinates: [  0.555555500000001,  0.444444333333333,  0.250000000000000 ]
    mass: 10.811000
    reduced_to: 1
  - symbol: B  # 17
    coordinates: [  0.722222166666667,  0.444444333333333,  0.250000000000000 ]
    mass: 10.811000
    reduced_to: 1
  - symbol: B  # 18
    coordinates: [  0.888888833333334,  0.444444333333333,  0.250000000000000 ]
    mass: 10.811000
    reduced_to: 1
  - symbol: B  # 19
    coordinates: [  0.055555500000001,  0.611111000000000,  0.250000000000000 ]
    mass: 10.811000
    reduced_to: 1
  - symbol: B  # 20
    coordinates: [  0.222222166666667,  0.611111000000000,  0.250000000000000 ]
    mass: 10.811000
    reduced_to: 1
  - symbol: B  # 21
    coordinates: [  0.388888833333334,  0.611111000000000,  0.250000000000000 ]
    mass: 10.811000
    reduced_to: 1
  - symbol: B  # 22
    coordinates: [  0.555555500000001,  0.611111000000000,  0.250000000000000 ]
    mass: 10.811000
    reduced_to: 1
  - symbol: B  # 23
    coordinates: [  0.722222166666667,  0.611111000000000,  0.250000000000000 ]
    mass: 10.811000
    reduced_to: 1
  - symbol: B  # 24
    coordinates: [  0.888888833333334,  0.611111000000000,  0.250000000000000 ]
    mass: 10.811000
    reduced_to: 1
  - symbol: B  # 25
    coordinates: [  0.055555500000001,  0.777777666666666,  0.250000000000000 ]
    mass: 10.811000
    reduced_to: 1
  - symbol: B  # 26
    coordinates: [  0.222222166666667,  0.777777666666666,  0.250000000000000 ]
    mass: 10.811000
    reduced_to: 1
  - symbol: B  # 27
    coordinates: [  0.388888833333334,  0.777777666666666,  0.250000000000000 ]
    mass: 10.811000
    reduced_to: 1
  - symbol: B  # 28
    coordinates: [  0.555555500000001,  0.777777666666666,  0.250000000000000 ]
    mass: 10.811000
    reduced_to: 1
  - symbol: B  # 29
    coordinates: [  0.722222166666667,  0.777777666666666,  0.250000000000000 ]
    mass: 10.811000
    reduced_to: 1
  - symbol: B  # 30
    coordinates: [  0.888888833333334,  0.777777666666666,  0.250000000000000 ]
    mass: 10.811000
    reduced_to: 1
  - symbol: B  # 31
    coordinates: [  0.055555500000001,  0.944444333333333,  0.250000000000000 ]
    mass: 10.811000
    reduced_to: 1
  - symbol: B  # 32
    coordinates: [  0.222222166666667,  0.944444333333333,  0.250000000000000 ]
    mass: 10.811000
    reduced_to: 1
  - symbol: B  # 33
    coordinates: [  0.388888833333334,  0.944444333333333,  0.250000000000000 ]
    mass: 10.811000
    reduced_to: 1
  - symbol: B  # 34
    coordinates: [  0.555555500000001,  0.944444333333333,  0.250000000000000 ]
    mass: 10.811000
    reduced_to: 1
  - symbol: B  # 35
    coordinates: [  0.722222166666667,  0.944444333333333,  0.250000000000000 ]
    mass: 10.811000
    reduced_to: 1
  - symbol: B  # 36
    coordinates: [  0.888888833333334,  0.944444333333333,  0.250000000000000 ]
    mass: 10.811000
    reduced_to: 1
  - symbol: B  # 37
    coordinates: [  0.111111000000000,  0.055555500000001,  0.250000000000000 ]
    mass: 10.811000
    reduced_to: 37
  - symbol: B  # 38
    coordinates: [  0.277777666666667,  0.055555500000001,  0.250000000000000 ]
    mass: 10.811000
    reduced_to: 37
  - symbol: B  # 39
    coordinates: [  0.444444333333333,  0.055555500000001,  0.250000000000000 ]
    mass: 10.811000
    reduced_to: 37
  - symbol: B  # 40
    coordinates: [  0.611111000000000,  0.055555500000001,  0.250000000000000 ]
    mass: 10.811000
    reduced_to: 37
  - symbol: B  # 41
    coordinates: [  0.777777666666666,  0.055555500000001,  0.250000000000000 ]
    mass: 10.811000
    reduced_to: 37
  - symbol: B  # 42
    coordinates: [  0.944444333333333,  0.055555500000001,  0.250000000000000 ]
    mass: 10.811000
    reduced_to: 37
  - symbol: B  # 43
    coordinates: [  0.111111000000000,  0.222222166666667,  0.250000000000000 ]
    mass: 10.811000
    reduced_to: 37
  - symbol: B  # 44
    coordinates: [  0.277777666666667,  0.222222166666667,  0.250000000000000 ]
    mass: 10.811000
    reduced_to: 37
  - symbol: B  # 45
    coordinates: [  0.444444333333333,  0.222222166666667,  0.250000000000000 ]
    mass: 10.811000
    reduced_to: 37
  - symbol: B  # 46
    coordinates: [  0.611111000000000,  0.222222166666667,  0.250000000000000 ]
    mass: 10.811000
    reduced_to: 37
  - symbol: B  # 47
    coordinates: [  0.777777666666666,  0.222222166666667,  0.250000000000000 ]
    mass: 10.811000
    reduced_to: 37
  - symbol: B  # 48
    coordinates: [  0.944444333333333,  0.222222166666667,  0.250000000000000 ]
    mass: 10.811000
    reduced_to: 37
  - symbol: B  # 49
    coordinates: [  0.111111000000000,  0.388888833333334,  0.250000000000000 ]
    mass: 10.811000
    reduced_to: 37
  - symbol: B  # 50
    coordinates: [  0.277777666666667,  0.388888833333334,  0.250000000000000 ]
    mass: 10.811000
    reduced_to: 37
  - symbol: B  # 51
    coordinates: [  0.444444333333333,  0.388888833333334,  0.250000000000000 ]
    mass: 10.811000
    reduced_to: 37
  - symbol: B  # 52
    coordinates: [  0.611111000000000,  0.388888833333334,  0.250000000000000 ]
    mass: 10.811000
    reduced_to: 37
  - symbol: B  # 53
    coordinates: [  0.777777666666666,  0.388888833333334,  0.250000000000000 ]
    mass: 10.811000
    reduced_to: 37
  - symbol: B  # 54
    coordinates: [  0.944444333333333,  0.388888833333334,  0.250000000000000 ]
    mass: 10.811000
    reduced_to: 37
  - symbol: B  # 55
    coordinates: [  0.111111000000000,  0.555555500000001,  0.250000000000000 ]
    mass: 10.811000
    reduced_to: 37
  - symbol: B  # 56
    coordinates: [  0.277777666666667,  0.555555500000001,  0.250000000000000 ]
    mass: 10.811000
    reduced_to: 37
  - symbol: B  # 57
    coordinates: [  0.444444333333333,  0.555555500000001,  0.250000000000000 ]
    mass: 10.811000
    reduced_to: 37
  - symbol: B  # 58
    coordinates: [  0.611111000000000,  0.555555500000001,  0.250000000000000 ]
    mass: 10.811000
    reduced_to: 37
  - symbol: B  # 59
    coordinates: [  0.777777666666666,  0.555555500000001,  0.250000000000000 ]
    mass: 10.811000
    reduced_to: 37
  - symbol: B  # 60
    coordinates: [  0.944444333333333,  0.555555500000001,  0.250000000000000 ]
    mass: 10.811000
    reduced_to: 37
  - symbol: B  # 61
    coordinates: [  0.111111000000000,  0.722222166666667,  0.250000000000000 ]
    mass: 10.811000
    reduced_to: 37
  - symbol: B  # 62
    coordinates: [  0.277777666666667,  0.722222166666667,  0.250000000000000 ]
    mass: 10.811000
    reduced_to: 37
  - symbol: B  # 63
    coordinates: [  0.444444333333333,  0.722222166666667,  0.250000000000000 ]
    mass: 10.811000
    reduced_to: 37
  - symbol: B  # 64
    coordinates: [  0.611111000000000,  0.722222166666667,  0.250000000000000 ]
    mass: 10.811000
    reduced_to: 37
  - symbol: B  # 65
    coordinates: [  0.777777666666666,  0.722222166666667,  0.250000000000000 ]
    mass: 10.811000
    reduced_to: 37
  - symbol: B  # 66
    coordinates: [  0.944444333333333,  0.722222166666667,  0.250000000000000 ]
    mass: 10.811000
    reduced_to: 37
  - symbol: B  # 67
    coordinates: [  0.111111000000000,  0.888888833333334,  0.250000000000000 ]
    mass: 10.811000
    reduced_to: 37
  - symbol: B  # 68
    coordinates: [  0.277777666666667,  0.888888833333334,  0.250000000000000 ]
    mass: 10.811000
    reduced_to: 37
  - symbol: B  # 69
    coordinates: [  0.444444333333333,  0.888888833333334,  0.250000000000000 ]
    mass: 10.811000
    reduced_to: 37
  - symbol: B  # 70
    coordinates: [  0.611111000000000,  0.888888833333334,  0.250000000000000 ]
    mass: 10.811000
    reduced_to: 37
  - symbol: B  # 71
    coordinates: [  0.777777666666666,  0.888888833333334,  0.250000000000000 ]
    mass: 10.811000
    reduced_to: 37
  - symbol: B  # 72
    coordinates: [  0.944444333333333,  0.888888833333334,  0.250000000000000 ]
    mass: 10.811000
    reduced_to: 37
  - symbol: C  # 73
    coordinates: [  0.026448540362928,  0.052897247397946,  0.250000000000000 ]
    mass: 12.010700
    reduced_to: 73
  - symbol: C  # 74
    coordinates: [  0.193115207029595,  0.052897247397946,  0.250000000000000 ]
    mass: 12.010700
    reduced_to: 73
  - symbol: C  # 75
    coordinates: [  0.359781873696261,  0.052897247397946,  0.250000000000000 ]
    mass: 12.010700
    reduced_to: 73
  - symbol: C  # 76
    coordinates: [  0.526448540362928,  0.052897247397946,  0.250000000000000 ]
    mass: 12.010700
    reduced_to: 73
  - symbol: C  # 77
    coordinates: [  0.693115207029595,  0.052897247397946,  0.250000000000000 ]
    mass: 12.010700
    reduced_to: 73
  - symbol: C  # 78
    coordinates: [  0.859781873696261,  0.052897247397946,  0.250000000000000 ]
    mass: 12.010700
    reduced_to: 73
  - symbol: C  # 79
    coordinates: [  0.026448540362928,  0.219563914064613,  0.250000000000000 ]
    mass: 12.010700
    reduced_to: 73
  - symbol: C  # 80
    coordinates: [  0.193115207029595,  0.219563914064613,  0.250000000000000 ]
    mass: 12.010700
    reduced_to: 73
  - symbol: C  # 81
    coordinates: [  0.359781873696261,  0.219563914064613,  0.250000000000000 ]
    mass: 12.010700
    reduced_to: 73
  - symbol: C  # 82
    coordinates: [  0.526448540362928,  0.219563914064613,  0.250000000000000 ]
    mass: 12.010700
    reduced_to: 73
  - symbol: C  # 83
    coordinates: [  0.693115207029595,  0.219563914064613,  0.250000000000000 ]
    mass: 12.010700
    reduced_to: 73
  - symbol: C  # 84
    coordinates: [  0.859781873696261,  0.219563914064613,  0.250000000000000 ]
    mass: 12.010700
    reduced_to: 73
  - symbol: C  # 85
    coordinates: [  0.026448540362928,  0.386230580731279,  0.250000000000000 ]
    mass: 12.010700
    reduced_to: 73
  - symbol: C  # 86
    coordinates: [  0.193115207029595,  0.386230580731279,  0.250000000000000 ]
    mass: 12.010700
    reduced_to: 73
  - symbol: C  # 87
    coordinates: [  0.359781873696261,  0.386230580731279,  0.250000000000000 ]
    mass: 12.010700
    reduced_to: 73
  - symbol: C  # 88
    coordinates: [  0.526448540362928,  0.386230580731279,  0.250000000000000 ]
    mass: 12.010700
    reduced_to: 73
  - symbol: C  # 89
    coordinates: [  0.693115207029595,  0.386230580731279,  0.250000000000000 ]
    mass: 12.010700
    reduced_to: 73
  - symbol: C  # 90
    coordinates: [  0.859781873696261,  0.386230580731279,  0.250000000000000 ]
    mass: 12.010700
    reduced_to: 73
  - symbol: C  # 91
    coordinates: [  0.026448540362928,  0.552897247397946,  0.250000000000000 ]
    mass: 12.010700
    reduced_to: 73
  - symbol: C  # 92
    coordinates: [  0.193115207029595,  0.552897247397946,  0.250000000000000 ]
    mass: 12.010700
    reduced_to: 73
  - symbol: C  # 93
    coordinates: [  0.359781873696261,  0.552897247397946,  0.250000000000000 ]
    mass: 12.010700
    reduced_to: 73
  - symbol: C  # 94
    coordinates: [  0.526448540362928,  0.552897247397946,  0.250000000000000 ]
    mass: 12.010700
    reduced_to: 73
  - symbol: C  # 95
    coordinates: [  0.693115207029595,  0.552897247397946,  0.250000000000000 ]
    mass: 12.010700
    reduced_to: 73
  - symbol: C  # 96
    coordinates: [  0.859781873696261,  0.552897247397946,  0.250000000000000 ]
    mass: 12.010700
    reduced_to: 73
  - symbol: C  # 97
    coordinates: [  0.026448540362928,  0.719563914064613,  0.250000000000000 ]
    mass: 12.010700
    reduced_to: 73
  - symbol: C  # 98
    coordinates: [  0.193115207029595,  0.719563914064613,  0.250000000000000 ]
    mass: 12.010700
    reduced_to: 73
  - symbol: C  # 99
    coordinates: [  0.359781873696261,  0.719563914064613,  0.250000000000000 ]
    mass: 12.010700
    reduced_to: 73
  - symbol: C  # 100
    coordinates: [  0.526448540362928,  0.719563914064613,  0.250000000000000 ]
    mass: 12.010700
    reduced_to: 73
  - symbol: C  # 101
    coordinates: [  0.693115207029595,  0.719563914064613,  0.250000000000000 ]
    mass: 12.010700
    reduced_to: 73
  - symbol: C  # 102
    coordinates: [  0.859781873696261,  0.719563914064613,  0.250000000000000 ]
    mass: 12.010700
    reduced_to: 73
  - symbol: C  # 103
    coordinates: [  0.026448540362928,  0.886230580731279,  0.250000000000000 ]
    mass: 12.010700
    reduced_to: 73
  - symbol: C  # 104
    coordinates: [  0.193115207029595,  0.886230580731279,  0.250000000000000 ]
    mass: 12.010700
    reduced_to: 73
  - symbol: C  # 105
    coordinates: [  0.359781873696261,  0.886230580731279,  0.250000000000000 ]
    mass: 12.010700
    reduced_to: 73
  - symbol: C  # 106
    coordinates: [  0.526448540362928,  0.886230580731279,  0.250000000000000 ]
    mass: 12.010700
    reduced_to: 73
  - symbol: C  # 107
    coordinates: [  0.693115207029595,  0.886230580731279,  0.250000000000000 ]
    mass: 12.010700
    reduced_to: 73
  - symbol: C  # 108
    coordinates: [  0.859781873696261,  0.886230580731279,  0.250000000000000 ]
    mass: 12.010700
    reduced_to: 73
  - symbol: C  # 109
    coordinates: [  0.052897247397946,  0.026448540362928,  0.250000000000000 ]
    mass: 12.010700
    reduced_to: 109
  - symbol: C  # 110
    coordinates: [  0.219563914064613,  0.026448540362928,  0.250000000000000 ]
    mass: 12.010700
    reduced_to: 109
  - symbol: C  # 111
    coordinates: [  0.386230580731279,  0.026448540362928,  0.250000000000000 ]
    mass: 12.010700
    reduced_to: 109
  - symbol: C  # 112
    coordinates: [  0.552897247397946,  0.026448540362928,  0.250000000000000 ]
    mass: 12.010700
    reduced_to: 109
  - symbol: C  # 113
    coordinates: [  0.719563914064613,  0.026448540362928,  0.250000000000000 ]
    mass: 12.010700
    reduced_to: 109
  - symbol: C  # 114
    coordinates: [  0.886230580731279,  0.026448540362928,  0.250000000000000 ]
    mass: 12.010700
    reduced_to: 109
  - symbol: C  # 115
    coordinates: [  0.052897247397946,  0.193115207029595,  0.250000000000000 ]
    mass: 12.010700
    reduced_to: 109
  - symbol: C  # 116
    coordinates: [  0.219563914064613,  0.193115207029595,  0.250000000000000 ]
    mass: 12.010700
    reduced_to: 109
  - symbol: C  # 117
    coordinates: [  0.386230580731279,  0.193115207029595,  0.250000000000000 ]
    mass: 12.010700
    reduced_to: 109
  - symbol: C  # 118
    coordinates: [  0.552897247397946,  0.193115207029595,  0.250000000000000 ]
    mass: 12.010700
    reduced_to: 109
  - symbol: C  # 119
    coordinates: [  0.719563914064613,  0.193115207029595,  0.250000000000000 ]
    mass: 12.010700
    reduced_to: 109
  - symbol: C  # 120
    coordinates: [  0.886230580731279,  0.193115207029595,  0.250000000000000 ]
    mass: 12.010700
    reduced_to: 109
  - symbol: C  # 121
    coordinates: [  0.052897247397946,  0.359781873696261,  0.250000000000000 ]
    mass: 12.010700
    reduced_to: 109
  - symbol: C  # 122
    coordinates: [  0.219563914064613,  0.359781873696261,  0.250000000000000 ]
    mass: 12.010700
    reduced_to: 109
  - symbol: C  # 123
    coordinates: [  0.386230580731279,  0.359781873696261,  0.250000000000000 ]
    mass: 12.010700
    reduced_to: 109
  - symbol: C  # 124
    coordinates: [  0.552897247397946,  0.359781873696261,  0.250000000000000 ]
    mass: 12.010700
    reduced_to: 109
  - symbol: C  # 125
    coordinates: [  0.719563914064613,  0.359781873696261,  0.250000000000000 ]
    mass: 12.010700
    reduced_to: 109
  - symbol: C  # 126
    coordinates: [  0.886230580731279,  0.359781873696261,  0.250000000000000 ]
    mass: 12.010700
    reduced_to: 109
  - symbol: C  # 127
    coordinates: [  0.052897247397946,  0.526448540362928,  0.250000000000000 ]
    mass: 12.010700
    reduced_to: 109
  - symbol: C  # 128
    coordinates: [  0.219563914064613,  0.526448540362928,  0.250000000000000 ]
    mass: 12.010700
    reduced_to: 109
  - symbol: C  # 129
    coordinates: [  0.386230580731279,  0.526448540362928,  0.250000000000000 ]
    mass: 12.010700
    reduced_to: 109
  - symbol: C  # 130
    coordinates: [  0.552897247397946,  0.526448540362928,  0.250000000000000 ]
    mass: 12.010700
    reduced_to: 109
  - symbol: C  # 131
    coordinates: [  0.719563914064613,  0.526448540362928,  0.250000000000000 ]
    mass: 12.010700
    reduced_to: 109
  - symbol: C  # 132
    coordinates: [  0.886230580731279,  0.526448540362928,  0.250000000000000 ]
    mass: 12.010700
    reduced_to: 109
  - symbol: C  # 133
    coordinates: [  0.052897247397946,  0.693115207029595,  0.250000000000000 ]
    mass: 12.010700
    reduced_to: 109
  - symbol: C  # 134
    coordinates: [  0.219563914064613,  0.693115207029595,  0.250000000000000 ]
    mass: 12.010700
    reduced_to: 109
  - symbol: C  # 135
    coordinates: [  0.386230580731279,  0.693115207029595,  0.250000000000000 ]
    mass: 12.010700
    reduced_to: 109
  - symbol: C  # 136
    coordinates: [  0.552897247397946,  0.693115207029595,  0.250000000000000 ]
    mass: 12.010700
    reduced_to: 109
  - symbol: C  # 137
    coordinates: [  0.719563914064613,  0.693115207029595,  0.250000000000000 ]
    mass: 12.010700
    reduced_to: 109
  - symbol: C  # 138
    coordinates: [  0.886230580731279,  0.693115207029595,  0.250000000000000 ]
    mass: 12.010700
    reduced_to: 109
  - symbol: C  # 139
    coordinates: [  0.052897247397946,  0.859781873696261,  0.250000000000000 ]
    mass: 12.010700
    reduced_to: 109
  - symbol: C  # 140
    coordinates: [  0.219563914064613,  0.859781873696261,  0.250000000000000 ]
    mass: 12.010700
    reduced_to: 109
  - symbol: C  # 141
    coordinates: [  0.386230580731279,  0.859781873696261,  0.250000000000000 ]
    mass: 12.010700
    reduced_to: 109
  - symbol: C  # 142
    coordinates: [  0.552897247397946,  0.859781873696261,  0.250000000000000 ]
    mass: 12.010700
    reduced_to: 109
  - symbol: C  # 143
    coordinates: [  0.719563914064613,  0.859781873696261,  0.250000000000000 ]
    mass: 12.010700
    reduced_to: 109
  - symbol: C  # 144
    coordinates: [  0.886230580731279,  0.859781873696261,  0.250000000000000 ]
    mass: 12.010700
    reduced_to: 109
  - symbol: C  # 145
    coordinates: [  0.026448540368351,  0.140217959631650,  0.250000000000000 ]
    mass: 12.010700
    reduced_to: 145
  - symbol: C  # 146
    coordinates: [  0.193115207035017,  0.140217959631650,  0.250000000000000 ]
    mass: 12.010700
    reduced_to: 145
  - symbol: C  # 147
    coordinates: [  0.359781873701684,  0.140217959631650,  0.250000000000000 ]
    mass: 12.010700
    reduced_to: 145
  - symbol: C  # 148
    coordinates: [  0.526448540368351,  0.140217959631650,  0.250000000000000 ]
    mass: 12.010700
    reduced_to: 145
  - symbol: C  # 149
    coordinates: [  0.693115207035017,  0.140217959631650,  0.250000000000000 ]
    mass: 12.010700
    reduced_to: 145
  - symbol: C  # 150
    coordinates: [  0.859781873701684,  0.140217959631650,  0.250000000000000 ]
    mass: 12.010700
    reduced_to: 145
  - symbol: C  # 151
    coordinates: [  0.026448540368351,  0.306884626298316,  0.250000000000000 ]
    mass: 12.010700
    reduced_to: 145
  - symbol: C  # 152
    coordinates: [  0.193115207035017,  0.306884626298316,  0.250000000000000 ]
    mass: 12.010700
    reduced_to: 145
  - symbol: C  # 153
    coordinates: [  0.359781873701684,  0.306884626298316,  0.250000000000000 ]
    mass: 12.010700
    reduced_to: 145
  - symbol: C  # 154
    coordinates: [  0.526448540368351,  0.306884626298316,  0.250000000000000 ]
    mass: 12.010700
    reduced_to: 145
  - symbol: C  # 155
    coordinates: [  0.693115207035017,  0.306884626298316,  0.250000000000000 ]
    mass: 12.010700
    reduced_to: 145
  - symbol: C  # 156
    coordinates: [  0.859781873701684,  0.306884626298316,  0.250000000000000 ]
    mass: 12.010700
    reduced_to: 145
  - symbol: C  # 157
    coordinates: [  0.026448540368351,  0.473551292964983,  0.250000000000000 ]
    mass: 12.010700
    reduced_to: 145
  - symbol: C  # 158
    coordinates: [  0.193115207035017,  0.473551292964983,  0.250000000000000 ]
    mass: 12.010700
    reduced_to: 145
  - symbol: C  # 159
    coordinates: [  0.359781873701684,  0.473551292964983,  0.250000000000000 ]
    mass: 12.010700
    reduced_to: 145
  - symbol: C  # 160
    coordinates: [  0.526448540368351,  0.473551292964983,  0.250000000000000 ]
    mass: 12.010700
    reduced_to: 145
  - symbol: C  # 161
    coordinates: [  0.693115207035017,  0.473551292964983,  0.250000000000000 ]
    mass: 12.010700
    reduced_to: 145
  - symbol: C  # 162
    coordinates: [  0.859781873701684,  0.473551292964983,  0.250000000000000 ]
    mass: 12.010700
    reduced_to: 145
  - symbol: C  # 163
    coordinates: [  0.026448540368351,  0.640217959631650,  0.250000000000000 ]
    mass: 12.010700
    reduced_to: 145
  - symbol: C  # 164
    coordinates: [  0.193115207035017,  0.640217959631650,  0.250000000000000 ]
    mass: 12.010700
    reduced_to: 145
  - symbol: C  # 165
    coordinates: [  0.359781873701684,  0.640217959631650,  0.250000000000000 ]
    mass: 12.010700
    reduced_to: 145
  - symbol: C  # 166
    coordinates: [  0.526448540368351,  0.640217959631650,  0.250000000000000 ]
    mass: 12.010700
    reduced_to: 145
  - symbol: C  # 167
    coordinates: [  0.693115207035017,  0.640217959631650,  0.250000000000000 ]
    mass: 12.010700
    reduced_to: 145
  - symbol: C  # 168
    coordinates: [  0.859781873701684,  0.640217959631650,  0.250000000000000 ]
    mass: 12.010700
    reduced_to: 145
  - symbol: C  # 169
    coordinates: [  0.026448540368351,  0.806884626298316,  0.250000000000000 ]
    mass: 12.010700
    reduced_to: 145
  - symbol: C  # 170
    coordinates: [  0.193115207035017,  0.806884626298316,  0.250000000000000 ]
    mass: 12.010700
    reduced_to: 145
  - symbol: C  # 171
    coordinates: [  0.359781873701684,  0.806884626298316,  0.250000000000000 ]
    mass: 12.010700
    reduced_to: 145
  - symbol: C  # 172
    coordinates: [  0.526448540368351,  0.806884626298316,  0.250000000000000 ]
    mass: 12.010700
    reduced_to: 145
  - symbol: C  # 173
    coordinates: [  0.693115207035017,  0.806884626298316,  0.250000000000000 ]
    mass: 12.010700
    reduced_to: 145
  - symbol: C  # 174
    coordinates: [  0.859781873701684,  0.806884626298316,  0.250000000000000 ]
    mass: 12.010700
    reduced_to: 145
  - symbol: C  # 175
    coordinates: [  0.026448540368351,  0.973551292964983,  0.250000000000000 ]
    mass: 12.010700
    reduced_to: 145
  - symbol: C  # 176
    coordinates: [  0.193115207035017,  0.973551292964983,  0.250000000000000 ]
    mass: 12.010700
    reduced_to: 145
  - symbol: C  # 177
    coordinates: [  0.359781873701684,  0.973551292964983,  0.250000000000000 ]
    mass: 12.010700
    reduced_to: 145
  - symbol: C  # 178
    coordinates: [  0.526448540368351,  0.973551292964983,  0.250000000000000 ]
    mass: 12.010700
    reduced_to: 145
  - symbol: C  # 179
    coordinates: [  0.693115207035017,  0.973551292964983,  0.250000000000000 ]
    mass: 12.010700
    reduced_to: 145
  - symbol: C  # 180
    coordinates: [  0.859781873701684,  0.973551292964983,  0.250000000000000 ]
    mass: 12.010700
    reduced_to: 145
  - symbol: C  # 181
    coordinates: [  0.140217959631650,  0.026448540368351,  0.250000000000000 ]
    mass: 12.010700
    reduced_to: 181
  - symbol: C  # 182
    coordinates: [  0.306884626298316,  0.026448540368351,  0.250000000000000 ]
    mass: 12.010700
    reduced_to: 181
  - symbol: C  # 183
    coordinates: [  0.473551292964983,  0.026448540368351,  0.250000000000000 ]
    mass: 12.010700
    reduced_to: 181
  - symbol: C  # 184
    coordinates: [  0.640217959631650,  0.026448540368351,  0.250000000000000 ]
    mass: 12.010700
    reduced_to: 181
  - symbol: C  # 185
    coordinates: [  0.806884626298316,  0.026448540368351,  0.250000000000000 ]
    mass: 12.010700
    reduced_to: 181
  - symbol: C  # 186
    coordinates: [  0.973551292964983,  0.026448540368351,  0.250000000000000 ]
    mass: 12.010700
    reduced_to: 181
  - symbol: C  # 187
    coordinates: [  0.140217959631650,  0.193115207035017,  0.250000000000000 ]
    mass: 12.010700
    reduced_to: 181
  - symbol: C  # 188
    coordinates: [  0.306884626298316,  0.193115207035017,  0.250000000000000 ]
    mass: 12.010700
    reduced_to: 181
  - symbol: C  # 189
    coordinates: [  0.473551292964983,  0.193115207035017,  0.250000000000000 ]
    mass: 12.010700