phonopy:
  version: "2.19.1"
  frequency_unit_conversion_factor: 15.633302
  symmetry_tolerance: 1.00000e-05
  configuration:
    create_displacements: ".true."
    dim: "2 2 1"

physical_unit:
  atomic_mass: "AMU"
  length: "angstrom"
  force_constants: "eV/angstrom^2"

space_group:
  type: "P6/mmm"
  number: 191
  Hall_symbol: "-P 6 2"

supercell_matrix:
- [   2,   0,   0 ]
- [   0,   2,   0 ]
- [   0,   0,   1 ]

primitive_cell:
  lattice:
  - [     4.480848434025150,     2.587018851738510,     0.000000000000000 ] # a
  - [    -4.480848434025150,     2.587018851738510,     0.000000000000000 ] # b
  - [     0.000000000000000,     0.000000000000000,     8.520221399839757 ] # c
  points:
  - symbol: B  # 1
    coordinates: [  0.333333000000003,  0.666665999999999,  0.250000000000000 ]
    mass: 10.811000
  - symbol: B  # 2
    coordinates: [  0.666665999999999,  0.333333000000003,  0.250000000000000 ]
    mass: 10.811000
  - symbol: C  # 3
    coordinates: [  0.158691242177568,  0.317383484387676,  0.250000000000000 ]
    mass: 12.010700
  - symbol: C  # 4
    coordinates: [  0.317383484387676,  0.158691242177568,  0.250000000000000 ]
    mass: 12.010700
  - symbol: C  # 5
    coordinates: [  0.158691242210104,  0.841307757789899,  0.250000000000000 ]
    mass: 12.010700
  - symbol: C  # 6
    coordinates: [  0.841307757789899,  0.158691242210104,  0.250000000000000 ]
    mass: 12.010700
  - symbol: C  # 7
    coordinates: [  0.682615515612326,  0.841307757822435,  0.250000000000000 ]
    mass: 12.010700
  - symbol: C  # 8
    coordinates: [  0.841307757822435,  0.682615515612326,  0.250000000000000 ]
    mass: 12.010700
  reciprocal_lattice: # without 2pi
  - [     0.111586010408937,     0.193272654222830,     0.000000000000000 ] # a*
  - [    -0.111586010408937,     0.193272654222830,     0.000000000000000 ] # b*
  - [     0.000000000000000,     0.000000000000000,     0.117367842110160 ] # c*

unit_cell:
  lattice:
  - [     4.480848434025150,     2.587018851738510,     0.000000000000000 ] # a
  - [    -4.480848434025150,     2.587018851738510,     0.000000000000000 ] # b
  - [     0.000000000000000,     0.000000000000000,     8.520221399839757 ] # c
  points:
  - symbol: B  # 1
    coordinates: [  0.333333000000003,  0.666665999999999,  0.250000000000000 ]
    mass: 10.811000
    reduced_to: 1
  - symbol: B  # 2
    coordinates: [  0.666665999999999,  0.333333000000003,  0.250000000000000 ]
    mass: 10.811000
    reduced_to: 2
  - symbol: C  # 3
    coordinates: [  0.158691242177568,  0.317383484387676,  0.250000000000000 ]
    mass: 12.010700
    reduced_to: 3
  - symbol: C  # 4
    coordinates: [  0.317383484387676,  0.158691242177568,  0.250000000000000 ]
    mass: 12.010700
    reduced_to: 4
  - symbol: C  # 5
    coordinates: [  0.158691242210104,  0.841307757789899,  0.250000000000000 ]
    mass: 12.010700
    reduced_to: 5
  - symbol: C  # 6
    coordinates: [  0.841307757789899,  0.158691242210104,  0.250000000000000 ]
    mass: 12.010700
    reduced_to: 6
  - symbol: C  # 7
    coordinates: [  0.682615515612326,  0.841307757822435,  0.250000000000000 ]
    mass: 12.010700
    reduced_to: 7
  - symbol: C  # 8
    coordinates: [  0.841307757822435,  0.682615515612326,  0.250000000000000 ]
    mass: 12.010700
    reduced_to: 8

supercell:
  lattice:
  - [     8.961696868050300,     5.174037703477021,     0.000000000000000 ] # a
  - [    -8.961696868050300,     5.174037703477021,     0.000000000000000 ] # b
  - [     0.000000000000000,     0.000000000000000,     8.520221399839757 ] # c
  points:
  - symbol: B  # 1
    coordinates: [  0.166666500000002,  0.333333000000000,  0.250000000000000 ]
    mass: 10.811000
    reduced_to: 1
  - symbol: B  # 2
    coordinates: [  0.666666500000002,  0.333333000000000,  0.250000000000000 ]
    mass: 10.811000
    reduced_to: 1
  - symbol: B  # 3
    coordinates: [  0.166666500000002,  0.833333000000000,  0.250000000000000 ]
    mass: 10.811000
    reduced_to: 1
  - symbol: B  # 4
    coordinates: [  0.666666500000002,  0.833333000000000,  0.250000000000000 ]
    mass: 10.811000
    reduced_to: 1
  - symbol: B  # 5
    coordinates: [  0.333333000000000,  0.166666500000002,  0.250000000000000 ]
    mass: 10.811000
    reduced_to: 5
  - symbol: B  # 6
    coordinates: [  0.833333000000000,  0.166666500000002,  0.250000000000000 ]
    mass: 10.811000
    reduced_to: 5
  - symbol: B  # 7
    coordinates: [  0.333333000000000,  0.666666500000002,  0.250000000000000 ]
    mass: 10.811000
    reduced_to: 5
  - symbol: B  # 8
    coordinates: [  0.833333000000000,  0.666666500000002,  0.250000000000000 ]
    mass: 10.811000
    reduced_to: 5
  - symbol: C  # 9
    coordinates: [  0.079345621088784,  0.158691742193838,  0.250000000000000 ]
    mass: 12.010700
    reduced_to: 9
  - symbol: C  # 10
    coordinates: [  0.579345621088784,  0.158691742193838,  0.250000000000000 ]
    mass: 12.010700
    reduced_to: 9
  - symbol: C  # 11
    coordinates: [  0.079345621088784,  0.658691742193838,  0.250000000000000 ]
    mass: 12.010700
    reduced_to: 9
  - symbol: C  # 12
    coordinates: [  0.579345621088784,  0.658691742193838,  0.250000000000000 ]
    mass: 12.010700
    reduced_to: 9
  - symbol: C  # 13
    coordinates: [  0.158691742193838,  0.079345621088784,  0.250000000000000 ]
    mass: 12.010700
    reduced_to: 13
  - symbol: C  # 14
    coordinates: [  0.658691742193838,  0.079345621088784,  0.250000000000000 ]
    mass: 12.010700
    reduced_to: 13
  - symbol: C  # 15
    coordinates: [  0.158691742193838,  0.579345621088784,  0.250000000000000 ]
    mass: 12.010700
    reduced_to: 13
  - symbol: C  # 16
    coordinates: [  0.658691742193838,  0.579345621088784,  0.250000000000000 ]
    mass: 12.010700
    reduced_to: 13
  - symbol: C  # 17
    coordinates: [  0.079345621105052,  0.420653878894949,  0.250000000000000 ]
    mass: 12.010700
    reduced_to: 17
  - symbol: C  # 18
    coordinates: [  0.579345621105052,  0.420653878894949,  0.250000000000000 ]
    mass: 12.010700
    reduced_to: 17
  - symbol: C  # 19
    coordinates: [  0.079345621105052,  0.920653878894949,  0.250000000000000 ]
    mass: 12.010700
    reduced_to: 17
  - symbol: C  # 20
    coordinates: [  0.579345621105052,  0.920653878894949,  0.250000000000000 ]
    mass: 12.010700
    reduced_to: 17
  - symbol: C  # 21
    coordinates: [  0.420653878894949,  0.079345621105052,  0.250000000000000 ]
    mass: 12.010700
    reduced_to: 21
  - symbol: C  # 22
    coordinates: [  0.920653878894949,  0.079345621105052,  0.250000000000000 ]
    mass: 12.010700
    reduced_to: 21
  - symbol: C  # 23
    coordinates: [  0.420653878894949,  0.579345621105052,  0.250000000000000 ]
    mass: 12.010700
    reduced_to: 21
  - symbol: C  # 24
    coordinates: [  0.920653878894949,  0.579345621105052,  0.250000000000000 ]
    mass: 12.010700
    reduced_to: 21
  - symbol: C  # 25
    coordinates: [  0.341307757806163,  0.420653878911217,  0.250000000000000 ]
    mass: 12.010700
    reduced_to: 25
  - symbol: C  # 26
    coordinates: [  0.841307757806163,  0.420653878911217,  0.250000000000000 ]
    mass: 12.010700
    reduced_to: 25
  - symbol: C  # 27
    coordinates: [  0.341307757806163,  0.920653878911217,  0.250000000000000 ]
    mass: 12.010700
    reduced_to: 25
  - symbol: C  # 28
    coordinates: [  0.841307757806163,  0.920653878911217,  0.250000000000000 ]
    mass: 12.010700
    reduced_to: 25
  - symbol: C  # 29
    coordinates: [  0.420653878911217,  0.341307757806163,  0.250000000000000 ]
    mass: 12.010700
    reduced_to: 29
  - symbol: C  # 30
    coordinates: [  0.920653878911217,  0.341307757806163,  0.250000000000000 ]
    mass: 12.010700
    reduced_to: 29
  - symbol: C  # 31
    coordinates: [  0.420653878911217,  0.841307757806163,  0.250000000000000 ]
    mass: 12.010700
    reduced_to: 29
  - symbol: C  # 32
    coordinates: [  0.920653878911217,  0.841307757806163,  0.250000000000000 ]
    mass: 12.010700
    reduced_to: 29

displacements:
- atom:    1
  displacement:
    [   0.0066856584737097,  0.0038599664243129,  0.0063563063154706 ]
- atom:    9
  displacement:
    [  -0.0066856584737097,  0.0038599664243129,  0.0063563063154706 ]
- atom:    9
  displacement:
    [   0.0066856584737097, -0.0038599664243129, -0.0063563063154706 ]
