phonopy:
  version: "2.19.1"
  frequency_unit_conversion_factor: 15.633302
  symmetry_tolerance: 1.00000e-05
  configuration:
    cell_filename: "POSCAR-unitcell"
    create_displacements: ".true."
    dim: "3 3 1"

physical_unit:
  atomic_mass: "AMU"
  length: "angstrom"
  force_constants: "eV/angstrom^2"

space_group:
  type: "P6/mmm"
  number: 191
  Hall_symbol: "-P 6 2"

supercell_matrix:
- [   3,   0,   0 ]
- [   0,   3,   0 ]
- [   0,   0,   1 ]

primitive_cell:
  lattice:
  - [     4.480848434025150,     2.587018851738510,     0.000000000000000 ] # a
  - [    -4.480848434025150,     2.587018851738510,     0.000000000000000 ] # b
  - [     0.000000000000000,     0.000000000000000,     8.520221399839757 ] # c
  points:
  - symbol: B  # 1
    coordinates: [  0.333333000000003,  0.666665999999999,  0.250000000000000 ]
    mass: 10.811000
  - symbol: B  # 2
    coordinates: [  0.666665999999999,  0.333333000000003,  0.250000000000000 ]
    mass: 10.811000
  - symbol: C  # 3
    coordinates: [  0.158691242177568,  0.317383484387676,  0.250000000000000 ]
    mass: 12.010700
  - symbol: C  # 4
    coordinates: [  0.317383484387676,  0.158691242177568,  0.250000000000000 ]
    mass: 12.010700
  - symbol: C  # 5
    coordinates: [  0.158691242210104,  0.841307757789899,  0.250000000000000 ]
    mass: 12.010700
  - symbol: C  # 6
    coordinates: [  0.841307757789899,  0.158691242210104,  0.250000000000000 ]
    mass: 12.010700
  - symbol: C  # 7
    coordinates: [  0.682615515612326,  0.841307757822435,  0.250000000000000 ]
    mass: 12.010700
  - symbol: C  # 8
    coordinates: [  0.841307757822435,  0.682615515612326,  0.250000000000000 ]
    mass: 12.010700
  reciprocal_lattice: # without 2pi
  - [     0.111586010408937,     0.193272654222830,     0.000000000000000 ] # a*
  - [    -0.111586010408937,     0.193272654222830,     0.000000000000000 ] # b*
  - [     0.000000000000000,     0.000000000000000,     0.117367842110160 ] # c*

unit_cell:
  lattice:
  - [     4.480848434025150,     2.587018851738510,     0.000000000000000 ] # a
  - [    -4.480848434025150,     2.587018851738510,     0.000000000000000 ] # b
  - [     0.000000000000000,     0.000000000000000,     8.520221399839757 ] # c
  points:
  - symbol: B  # 1
    coordinates: [  0.333333000000003,  0.666665999999999,  0.250000000000000 ]
    mass: 10.811000
    reduced_to: 1
  - symbol: B  # 2
    coordinates: [  0.666665999999999,  0.333333000000003,  0.250000000000000 ]
    mass: 10.811000
    reduced_to: 2
  - symbol: C  # 3
    coordinates: [  0.158691242177568,  0.317383484387676,  0.250000000000000 ]
    mass: 12.010700
    reduced_to: 3
  - symbol: C  # 4
    coordinates: [  0.317383484387676,  0.158691242177568,  0.250000000000000 ]
    mass: 12.010700
    reduced_to: 4
  - symbol: C  # 5
    coordinates: [  0.158691242210104,  0.841307757789899,  0.250000000000000 ]
    mass: 12.010700
    reduced_to: 5
  - symbol: C  # 6
    coordinates: [  0.841307757789899,  0.158691242210104,  0.250000000000000 ]
    mass: 12.010700
    reduced_to: 6
  - symbol: C  # 7
    coordinates: [  0.682615515612326,  0.841307757822435,  0.250000000000000 ]
    mass: 12.010700
    reduced_to: 7
  - symbol: C  # 8
    coordinates: [  0.841307757822435,  0.682615515612326,  0.250000000000000 ]
    mass: 12.010700
    reduced_to: 8

supercell:
  lattice:
  - [    13.442545302075450,     7.761056555215531,     0.000000000000000 ] # a
  - [   -13.442545302075450,     7.761056555215531,     0.000000000000000 ] # b
  - [     0.000000000000000,     0.000000000000000,     8.520221399839757 ] # c
  points:
  - symbol: B  # 1
    coordinates: [  0.111111000000001,  0.222222000000000,  0.250000000000000 ]
    mass: 10.811000
    reduced_to: 1
  - symbol: B  # 2
    coordinates: [  0.444444333333334,  0.222222000000000,  0.250000000000000 ]
    mass: 10.811000
    reduced_to: 1
  - symbol: B  # 3
    coordinates: [  0.777777666666668,  0.222222000000000,  0.250000000000000 ]
    mass: 10.811000
    reduced_to: 1
  - symbol: B  # 4
    coordinates: [  0.111111000000001,  0.555555333333333,  0.250000000000000 ]
    mass: 10.811000
    reduced_to: 1
  - symbol: B  # 5
    coordinates: [  0.444444333333334,  0.555555333333333,  0.250000000000000 ]
    mass: 10.811000
    reduced_to: 1
  - symbol: B  # 6
    coordinates: [  0.777777666666668,  0.555555333333333,  0.250000000000000 ]
    mass: 10.811000
    reduced_to: 1
  - symbol: B  # 7
    coordinates: [  0.111111000000001,  0.888888666666666,  0.250000000000000 ]
    mass: 10.811000
    reduced_to: 1
  - symbol: B  # 8
    coordinates: [  0.444444333333334,  0.888888666666666,  0.250000000000000 ]
    mass: 10.811000
    reduced_to: 1
  - symbol: B  # 9
    coordinates: [  0.777777666666668,  0.888888666666666,  0.250000000000000 ]
    mass: 10.811000
    reduced_to: 1
  - symbol: B  # 10
    coordinates: [  0.222222000000000,  0.111111000000001,  0.250000000000000 ]
    mass: 10.811000
    reduced_to: 10
  - symbol: B  # 11
    coordinates: [  0.555555333333333,  0.111111000000001,  0.250000000000000 ]
    mass: 10.811000
    reduced_to: 10
  - symbol: B  # 12
    coordinates: [  0.888888666666666,  0.111111000000001,  0.250000000000000 ]
    mass: 10.811000
    reduced_to: 10
  - symbol: B  # 13
    coordinates: [  0.222222000000000,  0.444444333333334,  0.250000000000000 ]
    mass: 10.811000
    reduced_to: 10
  - symbol: B  # 14
    coordinates: [  0.555555333333333,  0.444444333333334,  0.250000000000000 ]
    mass: 10.811000
    reduced_to: 10
  - symbol: B  # 15
    coordinates: [  0.888888666666666,  0.444444333333334,  0.250000000000000 ]
    mass: 10.811000
    reduced_to: 10
  - symbol: B  # 16
    coordinates: [  0.222222000000000,  0.777777666666668,  0.250000000000000 ]
    mass: 10.811000
    reduced_to: 10
  - symbol: B  # 17
    coordinates: [  0.555555333333333,  0.777777666666668,  0.250000000000000 ]
    mass: 10.811000
    reduced_to: 10
  - symbol: B  # 18
    coordinates: [  0.888888666666666,  0.777777666666668,  0.250000000000000 ]
    mass: 10.811000
    reduced_to: 10
  - symbol: C  # 19
    coordinates: [  0.052897080725856,  0.105794494795892,  0.250000000000000 ]
    mass: 12.010700
    reduced_to: 19
  - symbol: C  # 20
    coordinates: [  0.386230414059189,  0.105794494795892,  0.250000000000000 ]
    mass: 12.010700
    reduced_to: 19
  - symbol: C  # 21
    coordinates: [  0.719563747392523,  0.105794494795892,  0.250000000000000 ]
    mass: 12.010700
    reduced_to: 19
  - symbol: C  # 22
    coordinates: [  0.052897080725856,  0.439127828129225,  0.250000000000000 ]
    mass: 12.010700
    reduced_to: 19
  - symbol: C  # 23
    coordinates: [  0.386230414059189,  0.439127828129225,  0.250000000000000 ]
    mass: 12.010700
    reduced_to: 19
  - symbol: C  # 24
    coordinates: [  0.719563747392523,  0.439127828129225,  0.250000000000000 ]
    mass: 12.010700
    reduced_to: 19
  - symbol: C  # 25
    coordinates: [  0.052897080725856,  0.772461161462559,  0.250000000000000 ]
    mass: 12.010700
    reduced_to: 19
  - symbol: C  # 26
    coordinates: [  0.386230414059189,  0.772461161462559,  0.250000000000000 ]
    mass: 12.010700
    reduced_to: 19
  - symbol: C  # 27
    coordinates: [  0.719563747392523,  0.772461161462559,  0.250000000000000 ]
    mass: 12.010700
    reduced_to: 19
  - symbol: C  # 28
    coordinates: [  0.105794494795892,  0.052897080725856,  0.250000000000000 ]
    mass: 12.010700
    reduced_to: 28
  - symbol: C  # 29
    coordinates: [  0.439127828129225,  0.052897080725856,  0.250000000000000 ]
    mass: 12.010700
    reduced_to: 28
  - symbol: C  # 30
    coordinates: [  0.772461161462559,  0.052897080725856,  0.250000000000000 ]
    mass: 12.010700
    reduced_to: 28
  - symbol: C  # 31
    coordinates: [  0.105794494795892,  0.386230414059189,  0.250000000000000 ]
    mass: 12.010700
    reduced_to: 28
  - symbol: C  # 32
    coordinates: [  0.439127828129225,  0.386230414059189,  0.250000000000000 ]
    mass: 12.010700
    reduced_to: 28
  - symbol: C  # 33
    coordinates: [  0.772461161462559,  0.386230414059189,  0.250000000000000 ]
    mass: 12.010700
    reduced_to: 28
  - symbol: C  # 34
    coordinates: [  0.105794494795892,  0.719563747392523,  0.250000000000000 ]
    mass: 12.010700
    reduced_to: 28
  - symbol: C  # 35
    coordinates: [  0.439127828129225,  0.719563747392523,  0.250000000000000 ]
    mass: 12.010700
    reduced_to: 28
  - symbol: C  # 36
    coordinates: [  0.772461161462559,  0.719563747392523,  0.250000000000000 ]
    mass: 12.010700
    reduced_to: 28
  - symbol: C  # 37
    coordinates: [  0.052897080736701,  0.280435919263300,  0.250000000000000 ]
    mass: 12.010700
    reduced_to: 37
  - symbol: C  # 38
    coordinates: [  0.386230414070035,  0.280435919263300,  0.250000000000000 ]
    mass: 12.010700
    reduced_to: 37
  - symbol: C  # 39
    coordinates: [  0.719563747403368,  0.280435919263300,  0.250000000000000 ]
    mass: 12.010700
    reduced_to: 37
  - symbol: C  # 40
    coordinates: [  0.052897080736701,  0.613769252596633,  0.250000000000000 ]
    mass: 12.010700
    reduced_to: 37
  - symbol: C  # 41
    coordinates: [  0.386230414070035,  0.613769252596633,  0.250000000000000 ]
    mass: 12.010700
    reduced_to: 37
  - symbol: C  # 42
    coordinates: [  0.719563747403368,  0.613769252596633,  0.250000000000000 ]
    mass: 12.010700
    reduced_to: 37
  - symbol: C  # 43
    coordinates: [  0.052897080736701,  0.947102585929966,  0.250000000000000 ]
    mass: 12.010700
    reduced_to: 37
  - symbol: C  # 44
    coordinates: [  0.386230414070035,  0.947102585929966,  0.250000000000000 ]
    mass: 12.010700
    reduced_to: 37
  - symbol: C  # 45
    coordinates: [  0.719563747403368,  0.947102585929966,  0.250000000000000 ]
    mass: 12.010700
    reduced_to: 37
  - symbol: C  # 46
    coordinates: [  0.280435919263300,  0.052897080736701,  0.250000000000000 ]
    mass: 12.010700
    reduced_to: 46
  - symbol: C  # 47
    coordinates: [  0.613769252596633,  0.052897080736701,  0.250000000000000 ]
    mass: 12.010700
    reduced_to: 46
  - symbol: C  # 48
    coordinates: [  0.947102585929966,  0.052897080736701,  0.250000000000000 ]
    mass: 12.010700
    reduced_to: 46
  - symbol: C  # 49
    coordinates: [  0.280435919263300,  0.386230414070035,  0.250000000000000 ]
    mass: 12.010700
    reduced_to: 46
  - symbol: C  # 50
    coordinates: [  0.613769252596633,  0.386230414070035,  0.250000000000000 ]
    mass: 12.010700
    reduced_to: 46
  - symbol: C  # 51
    coordinates: [  0.947102585929966,  0.386230414070035,  0.250000000000000 ]
    mass: 12.010700
    reduced_to: 46
  - symbol: C  # 52
    coordinates: [  0.280435919263300,  0.719563747403368,  0.250000000000000 ]
    mass: 12.010700
    reduced_to: 46
  - symbol: C  # 53
    coordinates: [  0.613769252596633,  0.719563747403368,  0.250000000000000 ]
    mass: 12.010700
    reduced_to: 46
  - symbol: C  # 54
    coordinates: [  0.947102585929966,  0.719563747403368,  0.250000000000000 ]
    mass: 12.010700
    reduced_to: 46
  - symbol: C  # 55
    coordinates: [  0.227538505204109,  0.280435919274145,  0.250000000000000 ]
    mass: 12.010700
    reduced_to: 55
  - symbol: C  # 56
    coordinates: [  0.560871838537442,  0.280435919274145,  0.250000000000000 ]
    mass: 12.010700
    reduced_to: 55
  - symbol: C  # 57
    coordinates: [  0.894205171870775,  0.280435919274145,  0.250000000000000 ]
    mass: 12.010700
    reduced_to: 55
  - symbol: C  # 58
    coordinates: [  0.227538505204109,  0.613769252607478,  0.250000000000000 ]
    mass: 12.010700
    reduced_to: 55
  - symbol: C  # 59
    coordinates: [  0.560871838537442,  0.613769252607478,  0.250000000000000 ]
    mass: 12.010700
    reduced_to: 55
  - symbol: C  # 60
    coordinates: [  0.894205171870775,  0.613769252607478,  0.250000000000000 ]
    mass: 12.010700
    reduced_to: 55
  - symbol: C  # 61
    coordinates: [  0.227538505204109,  0.947102585940812,  0.250000000000000 ]
    mass: 12.010700
    reduced_to: 55
  - symbol: C  # 62
    coordinates: [  0.560871838537442,  0.947102585940812,  0.250000000000000 ]
    mass: 12.010700
    reduced_to: 55
  - symbol: C  # 63
    coordinates: [  0.894205171870775,  0.947102585940812,  0.250000000000000 ]
    mass: 12.010700
    reduced_to: 55
  - symbol: C  # 64
    coordinates: [  0.280435919274145,  0.227538505204109,  0.250000000000000 ]
    mass: 12.010700
    reduced_to: 64
  - symbol: C  # 65
    coordinates: [  0.613769252607478,  0.227538505204109,  0.250000000000000 ]
    mass: 12.010700
    reduced_to: 64
  - symbol: C  # 66
    coordinates: [  0.947102585940812,  0.227538505204109,  0.250000000000000 ]
    mass: 12.010700
    reduced_to: 64
  - symbol: C  # 67
    coordinates: [  0.280435919274145,  0.560871838537442,  0.250000000000000 ]
    mass: 12.010700
    reduced_to: 64
  - symbol: C  # 68
    coordinates: [  0.613769252607478,  0.560871838537442,  0.250000000000000 ]
    mass: 12.010700
    reduced_to: 64
  - symbol: C  # 69
    coordinates: [  0.947102585940812,  0.560871838537442,  0.250000000000000 ]
    mass: 12.010700
    reduced_to: 64
  - symbol: C  # 70
    coordinates: [  0.280435919274145,  0.894205171870775,  0.250000000000000 ]
    mass: 12.010700
    reduced_to: 64
  - symbol: C  # 71
    coordinates: [  0.613769252607478,  0.894205171870775,  0.250000000000000 ]
    mass: 12.010700
    reduced_to: 64
  - symbol: C  # 72
    coordinates: [  0.947102585940812,  0.894205171870775,  0.250000000000000 ]
    mass: 12.010700
    reduced_to: 64

displacements:
- atom:    1
  displacement:
    [   0.0075917486682007,  0.0043830978020056,  0.0048118401695118 ]
- atom:   19
  displacement:
    [  -0.0075917486682007,  0.0043830978020056,  0.0048118401695118 ]
- atom:   19
  displacement:
    [   0.0075917486682007, -0.0043830978020056, -0.0048118401695118 ]
