<?xml version="1.0" encoding="ISO-8859-1"?>
<modeling>
 <generator>
  <i name="program" type="string">vasp </i>
  <i name="version" type="string">5.4.4.18Apr17-6-g9f103f2a35  </i>
  <i name="subversion" type="string">(build Mar 30 2023 15:39:25) complex            parallel </i>
  <i name="platform" type="string">LinuxIFC </i>
  <i name="date" type="string">2023 06 21 </i>
  <i name="time" type="string">13:52:36 </i>
 </generator>
 <incar>
  <i type="string" name="SYSTEM"> BC3</i>
  <i type="int" name="ISTART">     0</i>
  <i type="string" name="PREC">accurate</i>
  <i type="string" name="ALGO"> Exact</i>
  <i type="int" name="ICHARG">     2</i>
  <i type="int" name="NELM">   200</i>
  <i type="int" name="IBRION">     8</i>
  <i name="EDIFF">      0.00000100</i>
  <i name="EDIFFG">     -0.00100000</i>
  <i type="int" name="NSW">     1</i>
  <i type="int" name="ISIF">     2</i>
  <i name="ENCUT">    450.00000000</i>
  <i type="int" name="ISMEAR">     0</i>
  <i name="SIGMA">      0.10000000</i>
  <v type="int" name="KPOINT_BSE">    -1     0     0     0</v>
  <i type="int" name="NELM">   200</i>
 </incar>
 <structure name="primitive_cell" >
  <crystal>
   <varray name="basis" >
    <v>       4.48084843       2.58701885       0.00000000 </v>
    <v>      -4.48084843       2.58701885       0.00000000 </v>
    <v>       0.00000000       0.00000000       8.52022140 </v>
   </varray>
   <i name="volume">    197.53348383 </i>
   <varray name="rec_basis" >
    <v>       0.11158601       0.19327265       0.00000000 </v>
    <v>      -0.11158601       0.19327265       0.00000000 </v>
    <v>       0.00000000       0.00000000       0.11736784 </v>
   </varray>
  </crystal>
  <varray name="positions" >
   <v>       0.33333300      -0.33333400       0.25000000 </v>
   <v>       0.15869124       0.31738348       0.25000000 </v>
   <v>      -0.31738448      -0.15869224       0.25000000 </v>
   <v>       0.15869124      -0.15869224       0.25000000 </v>
   <v>      -0.15869224       0.15869124       0.25000000 </v>
   <v>       0.31738348       0.15869124       0.25000000 </v>
   <v>      -0.15869224      -0.31738448       0.25000000 </v>
   <v>      -0.33333400       0.33333300       0.25000000 </v>
  </varray>
 </structure>
 <varray name="primitive_index" >
  <v type="int" >        1 </v>
  <v type="int" >       73 </v>
  <v type="int" >      217 </v>
  <v type="int" >      145 </v>
  <v type="int" >      186 </v>
  <v type="int" >      109 </v>
  <v type="int" >      253 </v>
  <v type="int" >       37 </v>
 </varray>
 <kpoints>
  <generation param="Gamma">
   <v type="int" name="divisions">       6        6        1 </v>
   <v name="usershift">      0.00000000       0.00000000       0.00000000 </v>
   <v name="genvec1">      0.16666667       0.00000000       0.00000000 </v>
   <v name="genvec2">      0.00000000       0.16666667       0.00000000 </v>
   <v name="genvec3">      0.00000000       0.00000000       1.00000000 </v>
   <v name="shift">      0.00000000       0.00000000       0.00000000 </v>
  </generation>
  <varray name="kpointlist" >
   <v>       0.00000000       0.00000000       0.00000000 </v>
   <v>       0.16666667      -0.00000000       0.00000000 </v>
   <v>       0.33333333       0.00000000       0.00000000 </v>
   <v>       0.50000000      -0.00000000       0.00000000 </v>
   <v>       0.16666667       0.16666667       0.00000000 </v>
   <v>       0.33333333       0.16666667       0.00000000 </v>
   <v>       0.33333333       0.33333333       0.00000000 </v>
  </varray>
  <varray name="weights" >
   <v>       0.02777778 </v>
   <v>       0.16666667 </v>
   <v>       0.16666667 </v>
   <v>       0.08333333 </v>
   <v>       0.16666667 </v>
   <v>       0.33333333 </v>
   <v>       0.05555556 </v>
  </varray>
 </kpoints>
 <parameters>
  <separator name="general" >
   <i type="string" name="SYSTEM">BC3</i>
   <i type="logical" name="LCOMPAT"> F  </i>
  </separator>
  <separator name="electronic" >
   <i type="string" name="PREC">accura</i>
   <i name="ENMAX">    450.00000000</i>
   <i name="ENAUG">    644.87300000</i>
   <i name="EDIFF">      0.00000100</i>
   <i type="int" name="IALGO">    90</i>
   <i type="int" name="IWAVPR">    11</i>
   <i type="int" name="NBANDS">   696</i>
   <i name="NELECT">   1080.00000000</i>
   <i type="int" name="TURBO">     0</i>
   <i type="int" name="IRESTART">     0</i>
   <i type="int" name="NREBOOT">     0</i>
   <i type="int" name="NMIN">     0</i>
   <i name="EREF">      0.00000000</i>
   <separator name="electronic smearing" >
    <i type="int" name="ISMEAR">     0</i>
    <i name="SIGMA">      0.10000000</i>
    <i name="KSPACING">      0.50000000</i>
    <i type="logical" name="KGAMMA"> T  </i>
   </separator>
   <separator name="electronic projectors" >
    <i type="logical" name="LREAL"> F  </i>
    <v name="ROPT">      0.00000000      0.00000000</v>
    <i type="int" name="LMAXPAW">  -100</i>
    <i type="int" name="LMAXMIX">     2</i>
    <i type="logical" name="NLSPLINE"> F  </i>
   </separator>
   <separator name="electronic startup" >
    <i type="int" name="ISTART">     0</i>
    <i type="int" name="ICHARG">     2</i>
    <i type="int" name="INIWAV">     1</i>
   </separator>
   <separator name="electronic spin" >
    <i type="int" name="ISPIN">     1</i>
    <i type="logical" name="LNONCOLLINEAR"> F  </i>
    <v name="MAGMOM">      1.00000000      1.00000000      1.00000000      1.00000000      1.00000000      1.00000000      1.00000000      1.00000000      1.00000000      1.00000000      1.00000000      1.00000000      1.00000000      1.00000000      1.00000000      1.00000000      1.00000000      1.00000000      1.00000000      1.00000000
      1.00000000      1.00000000      1.00000000      1.00000000      1.00000000      1.00000000      1.00000000      1.00000000      1.00000000      1.00000000      1.00000000      1.00000000      1.00000000      1.00000000      1.00000000      1.00000000      1.00000000      1.00000000      1.00000000      1.00000000
      1.00000000      1.00000000      1.00000000      1.00000000      1.00000000      1.00000000      1.00000000      1.00000000      1.00000000      1.00000000      1.00000000      1.00000000      1.00000000      1.00000000      1.00000000      1.00000000      1.00000000      1.00000000      1.00000000      1.00000000
      1.00000000      1.00000000      1.00000000      1.00000000      1.00000000      1.00000000      1.00000000      1.00000000      1.00000000      1.00000000      1.00000000      1.00000000      1.00000000      1.00000000      1.00000000      1.00000000      1.00000000      1.00000000      1.00000000      1.00000000
      1.00000000      1.00000000      1.00000000      1.00000000      1.00000000      1.00000000      1.00000000      1.00000000      1.00000000      1.00000000      1.00000000      1.00000000      1.00000000      1.00000000      1.00000000      1.00000000      1.00000000      1.00000000      1.00000000      1.00000000
      1.00000000      1.00000000      1.00000000      1.00000000      1.00000000      1.00000000      1.00000000      1.00000000      1.00000000      1.00000000      1.00000000      1.00000000      1.00000000      1.00000000      1.00000000      1.00000000      1.00000000      1.00000000      1.00000000      1.00000000
      1.00000000      1.00000000      1.00000000      1.00000000      1.00000000      1.00000000      1.00000000      1.00000000      1.00000000      1.00000000      1.00000000      1.00000000      1.00000000      1.00000000      1.00000000      1.00000000      1.00000000      1.00000000      1.00000000      1.00000000
      1.00000000      1.00000000      1.00000000      1.00000000      1.00000000      1.00000000      1.00000000      1.00000000      1.00000000      1.00000000      1.00000000      1.00000000      1.00000000      1.00000000      1.00000000      1.00000000      1.00000000      1.00000000      1.00000000      1.00000000
      1.00000000      1.00000000      1.00000000      1.00000000      1.00000000      1.00000000      1.00000000      1.00000000      1.00000000      1.00000000      1.00000000      1.00000000      1.00000000      1.00000000      1.00000000      1.00000000      1.00000000      1.00000000      1.00000000      1.00000000
      1.00000000      1.00000000      1.00000000      1.00000000      1.00000000      1.00000000      1.00000000      1.00000000      1.00000000      1.00000000      1.00000000      1.00000000      1.00000000      1.00000000      1.00000000      1.00000000      1.00000000      1.00000000      1.00000000      1.00000000
      1.00000000      1.00000000      1.00000000      1.00000000      1.00000000      1.00000000      1.00000000      1.00000000      1.00000000      1.00000000      1.00000000      1.00000000      1.00000000      1.00000000      1.00000000      1.00000000      1.00000000      1.00000000      1.00000000      1.00000000
      1.00000000      1.00000000      1.00000000      1.00000000      1.00000000      1.00000000      1.00000000      1.00000000      1.00000000      1.00000000      1.00000000      1.00000000      1.00000000      1.00000000      1.00000000      1.00000000      1.00000000      1.00000000      1.00000000      1.00000000
      1.00000000      1.00000000      1.00000000      1.00000000      1.00000000      1.00000000      1.00000000      1.00000000      1.00000000      1.00000000      1.00000000      1.00000000      1.00000000      1.00000000      1.00000000      1.00000000      1.00000000      1.00000000      1.00000000      1.00000000
      1.00000000      1.00000000      1.00000000      1.00000000      1.00000000      1.00000000      1.00000000      1.00000000      1.00000000      1.00000000      1.00000000      1.00000000      1.00000000      1.00000000      1.00000000      1.00000000      1.00000000      1.00000000      1.00000000      1.00000000
      1.00000000      1.00000000      1.00000000      1.00000000      1.00000000      1.00000000      1.00000000      1.00000000</v>
    <i name="NUPDOWN">     -1.00000000</i>
    <i type="logical" name="LSORBIT"> F  </i>
    <v name="SAXIS">      0.00000000      0.00000000      1.00000000</v>
    <i type="logical" name="LSPIRAL"> F  </i>
    <v name="QSPIRAL">      0.00000000      0.00000000      0.00000000</v>
    <i type="logical" name="LZEROZ"> F  </i>
   </separator>
   <separator name="electronic exchange-correlation" >
    <i type="logical" name="LASPH"> F  </i>
    <i type="logical" name="LMETAGGA"> F  </i>
   </separator>
   <separator name="electronic convergence" >
    <i type="int" name="NELM">   200</i>
    <i type="int" name="NELMDL">    -5</i>
    <i type="int" name="NELMIN">     2</i>
    <i name="ENINI">    450.00000000</i>
    <separator name="electronic convergence detail" >
     <i type="logical" name="LDIAG"> T  </i>
     <i type="logical" name="LSUBROT"> F  </i>
     <i name="WEIMIN">      0.00100000</i>
     <i name="EBREAK">      0.00000000</i>
     <i name="DEPER">      0.30000000</i>
     <i type="int" name="NRMM">     4</i>
     <i name="TIME">      0.40000000</i>
    </separator>
   </separator>
   <separator name="electronic mixer" >
    <i name="AMIX">      0.40000000</i>
    <i name="BMIX">      1.00000000</i>
    <i name="AMIN">      0.10000000</i>
    <i name="AMIX_MAG">      1.60000000</i>
    <i name="BMIX_MAG">      1.00000000</i>
    <separator name="electronic mixer details" >
     <i type="int" name="IMIX">     4</i>
     <i type="logical" name="MIXFIRST"> F  </i>
     <i type="int" name="MAXMIX">   -45</i>
     <i name="WC">    100.00000000</i>
     <i type="int" name="INIMIX">     1</i>
     <i type="int" name="MIXPRE">     1</i>
     <i type="int" name="MREMOVE">     5</i>
    </separator>
   </separator>
   <separator name="electronic dipolcorrection" >
    <i type="logical" name="LDIPOL"> F  </i>
    <i type="logical" name="LMONO"> F  </i>
    <i type="int" name="IDIPOL">     0</i>
    <i name="EPSILON">      1.00000000</i>
    <v name="DIPOL">   -100.00000000   -100.00000000   -100.00000000</v>
    <i name="EFIELD">      0.00000000</i>
   </separator>
  </separator>
  <separator name="grids" >
   <i type="int" name="NGX">   216</i>
   <i type="int" name="NGY">   216</i>
   <i type="int" name="NGZ">    60</i>
   <i type="int" name="NGXF">   432</i>
   <i type="int" name="NGYF">   432</i>
   <i type="int" name="NGZF">   120</i>
   <i type="logical" name="ADDGRID"> F  </i>
  </separator>
  <separator name="ionic" >
   <i type="int" name="NSW">     1</i>
   <i type="int" name="IBRION">     8</i>
   <i type="int" name="MDALGO">     0</i>
   <i type="int" name="ISIF">     2</i>
   <i name="PSTRESS">      0.00000000</i>
   <i name="EDIFFG">     -0.00100000</i>
   <i type="int" name="NFREE">     0</i>
   <i name="POTIM">      0.50000000</i>
   <i name="SMASS">     -3.00000000</i>
   <i name="SCALEE">      1.00000000</i>
  </separator>
  <separator name="ionic md" >
   <i name="TEBEG">      0.00010000</i>
   <i name="TEEND">      0.00010000</i>
   <i type="int" name="NBLOCK">     1</i>
   <i type="int" name="KBLOCK">     1</i>
   <i type="int" name="NPACO">   256</i>
   <i name="APACO">     16.00000000</i>
  </separator>
  <separator name="symmetry" >
   <i type="int" name="ISYM">     2</i>
   <i name="SYMPREC">      0.00001000</i>
  </separator>
  <separator name="dos" >
   <i type="int" name="LORBIT">     0</i>
   <v name="RWIGS">     -1.00000000     -1.00000000</v>
   <i type="int" name="NEDOS">   301</i>
   <i name="EMIN">     10.00000000</i>
   <i name="EMAX">    -10.00000000</i>
   <i name="EFERMI">      0.00000000</i>
  </separator>
  <separator name="writing" >
   <i type="int" name="NWRITE">     2</i>
   <i type="logical" name="LWAVE"> T  </i>
   <i type="logical" name="LDOWNSAMPLE"> F  </i>
   <i type="logical" name="LCHARG"> T  </i>
   <i type="logical" name="LPARD"> F  </i>
   <i type="logical" name="LVTOT"> F  </i>
   <i type="logical" name="LVHAR"> F  </i>
   <i type="logical" name="LELF"> F  </i>
   <i type="logical" name="LOPTICS"> F  </i>
   <v name="STM">      0.00000000      0.00000000      0.00000000      0.00000000      0.00000000      0.00000000      0.00000000</v>
  </separator>
  <separator name="performance" >
   <i type="int" name="NPAR">    12</i>
   <i type="int" name="NSIM">     4</i>
   <i type="int" name="NBLK">    -1</i>
   <i type="logical" name="LPLANE"> T  </i>
   <i type="logical" name="LSCALAPACK"> T  </i>
   <i type="logical" name="LSCAAWARE"> F  </i>
   <i type="logical" name="LSCALU"> F  </i>
   <i type="logical" name="LASYNC"> F  </i>
   <i type="logical" name="LORBITALREAL"> F  </i>
  </separator>
  <separator name="miscellaneous" >
   <i type="int" name="IDIOT">     3</i>
   <i type="int" name="ISPECIAL">     0</i>
   <i type="logical" name="LMUSIC"> F  </i>
   <v name="POMASS">     10.81100000     12.01100000</v>
   <v name="DARWINR">      0.00000000      0.00000000</v>
   <v name="DARWINV">      1.00000000      1.00000000</v>
   <i type="logical" name="LCORR"> T  </i>
  </separator>
  <i type="logical" name="GGA_COMPAT"> T  </i>
  <i type="logical" name="LBERRY"> F  </i>
  <i type="int" name="ICORELEVEL">     0</i>
  <i type="logical" name="LDAU"> F  </i>
  <i type="int" name="I_CONSTRAINED_M">     0</i>
  <separator name="electronic exchange-correlation" >
   <i type="string" name="GGA">--</i>
   <i type="int" name="VOSKOWN">     0</i>
   <i type="logical" name="LHFCALC"> F  </i>
   <i type="string" name="PRECFOCK"></i>
   <i type="logical" name="LSYMGRAD"> F  </i>
   <i type="logical" name="LHFONE"> F  </i>
   <i type="logical" name="LRHFCALC"> F  </i>
   <i type="logical" name="LTHOMAS"> F  </i>
   <i type="logical" name="LMODELHF"> F  </i>
   <i name="ENCUT4O">     -1.00000000</i>
   <i type="int" name="EXXOEP">     0</i>
   <i type="int" name="FOURORBIT">     0</i>
   <i name="AEXX">      0.00000000</i>
   <i name="HFALPHA">      0.00000000</i>
   <i name="MCALPHA">      0.00000000</i>
   <i name="ALDAX">      1.00000000</i>
   <i name="AGGAX">      1.00000000</i>
   <i name="ALDAC">      1.00000000</i>
   <i name="AGGAC">      1.00000000</i>
   <i type="int" name="NKREDX">     1</i>
   <i type="int" name="NKREDY">     1</i>
   <i type="int" name="NKREDZ">     1</i>
   <i type="logical" name="SHIFTRED"> F  </i>
   <i type="logical" name="ODDONLY"> F  </i>
   <i type="logical" name="EVENONLY"> F  </i>
   <i type="int" name="LMAXFOCK">     0</i>
   <i type="int" name="NMAXFOCKAE">     0</i>
   <i type="logical" name="LFOCKAEDFT"> F  </i>
   <i name="HFSCREEN">      0.00000000</i>
   <i name="HFSCREENC">      0.00000000</i>
   <i type="int" name="NBANDSGWLOW">     0</i>
  </separator>
  <separator name="vdW DFT" >
   <i type="logical" name="LUSE_VDW"> F  </i>
   <i name="Zab_VDW">     -0.84910000</i>
   <i name="PARAM1">      0.12340000</i>
   <i name="PARAM2">      1.00000000</i>
   <i name="PARAM3">      0.00000000</i>
  </separator>
  <separator name="model GW" >
   <i type="int" name="MODEL_GW">     0</i>
   <i name="MODEL_EPS0">     14.81501129</i>
   <i name="MODEL_ALPHA">      1.00000000</i>
  </separator>
  <separator name="linear response parameters" >
   <i type="logical" name="LEPSILON"> F  </i>
   <i type="logical" name="LRPA"> F  </i>
   <i type="logical" name="LNABLA"> F  </i>
   <i type="logical" name="LVEL"> F  </i>
   <i type="int" name="KINTER">     0</i>
   <i name="CSHIFT">      0.10000000</i>
   <i name="OMEGAMAX">     -1.00000000</i>
   <i name="DEG_THRESHOLD">      0.00200000</i>
   <i name="RTIME">     -0.10000000</i>
   <i name="WPLASMAI">      0.00000000</i>
   <v name="DFIELD">      0.00000000      0.00000000      0.00000000</v>
   <v name="WPLASMA">      0.00000000      0.00000000      0.00000000      0.00000000      0.00000000      0.00000000      0.00000000      0.00000000      0.00000000</v>
  </separator>
  <separator name="orbital magnetization" >
   <i type="logical" name="NUCIND"> F  </i>
   <v name="MAGPOS">      0.00000000      0.00000000      0.00000000</v>
   <i type="logical" name="LNICSALL"> T  </i>
   <i type="logical" name="ORBITALMAG"> F  </i>
   <i type="logical" name="LMAGBLOCH"> F  </i>
   <i type="logical" name="LCHIMAG"> F  </i>
   <i type="logical" name="LGAUGE"> T  </i>
   <i type="int" name="MAGATOM">     0</i>
   <v name="MAGDIPOL">      0.00000000      0.00000000      0.00000000</v>
   <v name="AVECCONST">      0.00000000      0.00000000      0.00000000</v>
  </separator>
  <separator name="response functions" >
   <i type="logical" name="LADDER"> F  </i>
   <i type="logical" name="LRPAFORCE"> F  </i>
   <i type="logical" name="LFXC"> F  </i>
   <i type="logical" name="LHARTREE"> T  </i>
   <i type="int" name="IBSE">     0</i>
   <v type="int" name="KPOINT">    -1     0     0     0</v>
   <i type="logical" name="LTCTE"> F  </i>
   <i type="logical" name="LTETE"> F  </i>
   <i type="logical" name="LTRIPLET"> F  </i>
   <i type="logical" name="LFXCEPS"> F  </i>
   <i type="logical" name="LFXHEG"> F  </i>
   <i type="int" name="NATURALO">     2</i>
   <i type="logical" name="L2ORDER"> F  </i>
   <i type="logical" name="LMP2LT"> F  </i>
   <i type="logical" name="LUSEW"> F  </i>
   <i name="ENCUTGW">     -2.00000000</i>
   <i name="ENCUTGWSOFT">     -2.00000000</i>
   <i name="ENCUTLF">     -1.00000000</i>
   <i type="int" name="LMAXMP2">    -1</i>
   <i name="SCISSOR">      0.00000000</i>
   <i type="int" name="NOMEGA">     0</i>
   <i type="int" name="NOMEGAR">     0</i>
   <i type="int" name="NBANDSGW">    -1</i>
   <i type="int" name="NBANDSO">    -1</i>
   <i type="int" name="NBANDSV">    -1</i>
   <i type="int" name="NELM">   200</i>
   <i type="int" name="NELMHF">     1</i>
   <i type="int" name="DIM">     3</i>
   <i type="int" name="ANTIRES">     0</i>
   <i name="OMEGAMAX">    -30.00000000</i>
   <i name="OMEGAMIN">    -30.00000000</i>
   <i name="OMEGATL">   -200.00000000</i>
   <i type="int" name="OMEGAGRID">   140</i>
   <i name="CSHIFT">     -0.10000000</i>
   <i type="logical" name="SELFENERGY"> F  </i>
   <i type="logical" name="LSPECTRAL"> F  </i>
   <i type="logical" name="LSPECTRALGW"> F  </i>
   <i type="logical" name="LSINGLES"> F  </i>
   <i type="logical" name="LFERMIGW"> F  </i>
   <i type="logical" name="ODDONLYGW"> F  </i>
   <i type="logical" name="EVENONLYGW"> F  </i>
   <i type="int" name="NKREDLFX">     1</i>
   <i type="int" name="NKREDLFY">     1</i>
   <i type="int" name="NKREDLFZ">     1</i>
   <i type="int" name="MAXMEM">  2800</i>
   <i type="int" name="TELESCOPE">     0</i>
   <i type="int" name="TAUPAR">     1</i>
   <i type="int" name="OMEGAPAR">    -1</i>
   <i name="LAMBDA">      1.00000000</i>
  </separator>
  <separator name="External order field" >
   <i name="OFIELD_KAPPA">      0.00000000</i>
   <v name="OFIELD_K">      0.00000000      0.00000000      0.00000000</v>
   <i name="OFIELD_Q6_NEAR">      0.00000000</i>
   <i name="OFIELD_Q6_FAR">      0.00000000</i>
   <i name="OFIELD_A">      0.00000000</i>
  </separator>
 </parameters>
 <atominfo>
  <atoms>     288 </atoms>
  <types>       2 </types>
  <array name="atoms" >
   <dimension dim="1">ion</dimension>
   <field type="string">element</field>
   <field type="int">atomtype</field>
   <set>
    <rc><c>B </c><c>   1</c></rc>
    <rc><c>B </c><c>   1</c></rc>
    <rc><c>B </c><c>   1</c></rc>
    <rc><c>B </c><c>   1</c></rc>
    <rc><c>B </c><c>   1</c></rc>
    <rc><c>B </c><c>   1</c></rc>
    <rc><c>B </c><c>   1</c></rc>
    <rc><c>B </c><c>   1</c></rc>
    <rc><c>B </c><c>   1</c></rc>
    <rc><c>B </c><c>   1</c></rc>
    <rc><c>B </c><c>   1</c></rc>
    <rc><c>B </c><c>   1</c></rc>
    <rc><c>B </c><c>   1</c></rc>
    <rc><c>B </c><c>   1</c></rc>
    <rc><c>B </c><c>   1</c></rc>
    <rc><c>B </c><c>   1</c></rc>
    <rc><c>B </c><c>   1</c></rc>
    <rc><c>B </c><c>   1</c></rc>
    <rc><c>B </c><c>   1</c></rc>
    <rc><c>B </c><c>   1</c></rc>
    <rc><c>B </c><c>   1</c></rc>
    <rc><c>B </c><c>   1</c></rc>
    <rc><c>B </c><c>   1</c></rc>
    <rc><c>B </c><c>   1</c></rc>
    <rc><c>B </c><c>   1</c></rc>
    <rc><c>B </c><c>   1</c></rc>
    <rc><c>B </c><c>   1</c></rc>
    <rc><c>B </c><c>   1</c></rc>
    <rc><c>B </c><c>   1</c></rc>
    <rc><c>B </c><c>   1</c></rc>
    <rc><c>B </c><c>   1</c></rc>
    <rc><c>B </c><c>   1</c></rc>
    <rc><c>B </c><c>   1</c></rc>
    <rc><c>B </c><c>   1</c></rc>
    <rc><c>B </c><c>   1</c></rc>
    <rc><c>B </c><c>   1</c></rc>
    <rc><c>B </c><c>   1</c></rc>
    <rc><c>B </c><c>   1</c></rc>
    <rc><c>B </c><c>   1</c></rc>
    <rc><c>B </c><c>   1</c></rc>
    <rc><c>B </c><c>   1</c></rc>
    <rc><c>B </c><c>   1</c></rc>
    <rc><c>B </c><c>   1</c></rc>
    <rc><c>B </c><c>   1</c></rc>
    <rc><c>B </c><c>   1</c></rc>
    <rc><c>B </c><c>   1</c></rc>
    <rc><c>B </c><c>   1</c></rc>
    <rc><c>B </c><c>   1</c></rc>
    <rc><c>B </c><c>   1</c></rc>
    <rc><c>B </c><c>   1</c></rc>
    <rc><c>B </c><c>   1</c></rc>
    <rc><c>B </c><c>   1</c></rc>
    <rc><c>B </c><c>   1</c></rc>
    <rc><c>B </c><c>   1</c></rc>
    <rc><c>B </c><c>   1</c></rc>
    <rc><c>B </c><c>   1</c></rc>
    <rc><c>B </c><c>   1</c></rc>
    <rc><c>B </c><c>   1</c></rc>
    <rc><c>B </c><c>   1</c></rc>
    <rc><c>B </c><c>   1</c></rc>
    <rc><c>B </c><c>   1</c></rc>
    <rc><c>B </c><c>   1</c></rc>
    <rc><c>B </c><c>   1</c></rc>
    <rc><c>B </c><c>   1</c></rc>
    <rc><c>B </c><c>   1</c></rc>
    <rc><c>B </c><c>   1</c></rc>
    <rc><c>B </c><c>   1</c></rc>
    <rc><c>B </c><c>   1</c></rc>
    <rc><c>B </c><c>   1</c></rc>
    <rc><c>B </c><c>   1</c></rc>
    <rc><c>B </c><c>   1</c></rc>
    <rc><c>B </c><c>   1</c></rc>
    <rc><c>C </c><c>   2</c></rc>
    <rc><c>C </c><c>   2</c></rc>
    <rc><c>C </c><c>   2</c></rc>
    <rc><c>C </c><c>   2</c></rc>
    <rc><c>C </c><c>   2</c></rc>
    <rc><c>C </c><c>   2</c></rc>
    <rc><c>C </c><c>   2</c></rc>
    <rc><c>C </c><c>   2</c></rc>
    <rc><c>C </c><c>   2</c></rc>
    <rc><c>C </c><c>   2</c></rc>
    <rc><c>C </c><c>   2</c></rc>
    <rc><c>C </c><c>   2</c></rc>
    <rc><c>C </c><c>   2</c></rc>
    <rc><c>C </c><c>   2</c></rc>
    <rc><c>C </c><c>   2</c></rc>
    <rc><c>C </c><c>   2</c></rc>
    <rc><c>C </c><c>   2</c></rc>
    <rc><c>C </c><c>   2</c></rc>
    <rc><c>C </c><c>   2</c></rc>
    <rc><c>C </c><c>   2</c></rc>
    <rc><c>C </c><c>   2</c></rc>
    <rc><c>C </c><c>   2</c></rc>
    <rc><c>C </c><c>   2</c></rc>
    <rc><c>C </c><c>   2</c></rc>
    <rc><c>C </c><c>   2</c></rc>
    <rc><c>C </c><c>   2</c></rc>
    <rc><c>C </c><c>   2</c></rc>
    <rc><c>C </c><c>   2</c></rc>
    <rc><c>C </c><c>   2</c></rc>
    <rc><c>C </c><c>   2</c></rc>
    <rc><c>C </c><c>   2</c></rc>
    <rc><c>C </c><c>   2</c></rc>
    <rc><c>C </c><c>   2</c></rc>
    <rc><c>C </c><c>   2</c></rc>
    <rc><c>C </c><c>   2</c></rc>
    <rc><c>C </c><c>   2</c></rc>
    <rc><c>C </c><c>   2</c></rc>
    <rc><c>C </c><c>   2</c></rc>
    <rc><c>C </c><c>   2</c></rc>
    <rc><c>C </c><c>   2</c></rc>
    <rc><c>C </c><c>   2</c></rc>
    <rc><c>C </c><c>   2</c></rc>
    <rc><c>C </c><c>   2</c></rc>
    <rc><c>C </c><c>   2</c></rc>
    <rc><c>C </c><c>   2</c></rc>
    <rc><c>C </c><c>   2</c></rc>
    <rc><c>C </c><c>   2</c></rc>
    <rc><c>C </c><c>   2</c></rc>
    <rc><c>C </c><c>   2</c></rc>
    <rc><c>C </c><c>   2</c></rc>
    <rc><c>C </c><c>   2</c></rc>
    <rc><c>C </c><c>   2</c></rc>
    <rc><c>C </c><c>   2</c></rc>
    <rc><c>C </c><c>   2</c></rc>
    <rc><c>C </c><c>   2</c></rc>
    <rc><c>C </c><c>   2</c></rc>
    <rc><c>C </c><c>   2</c></rc>
    <rc><c>C </c><c>   2</c></rc>
    <rc><c>C </c><c>   2</c></rc>
    <rc><c>C </c><c>   2</c></rc>
    <rc><c>C </c><c>   2</c></rc>
    <rc><c>C </c><c>   2</c></rc>
    <rc><c>C </c><c>   2</c></rc>
    <rc><c>C </c><c>   2</c></rc>
    <rc><c>C </c><c>   2</c></rc>
    <rc><c>C </c><c>   2</c></rc>
    <rc><c>C </c><c>   2</c></rc>
    <rc><c>C </c><c>   2</c></rc>
    <rc><c>C </c><c>   2</c></rc>
    <rc><c>C </c><c>   2</c></rc>
    <rc><c>C </c><c>   2</c></rc>
    <rc><c>C </c><c>   2</c></rc>
    <rc><c>C </c><c>   2</c></rc>
    <rc><c>C </c><c>   2</c></rc>
    <rc><c>C </c><c>   2</c></rc>
    <rc><c>C </c><c>   2</c></rc>
    <rc><c>C </c><c>   2</c></rc>
    <rc><c>C </c><c>   2</c></rc>
    <rc><c>C </c><c>   2</c></rc>
    <rc><c>C </c><c>   2</c></rc>
    <rc><c>C </c><c>   2</c></rc>
    <rc><c>C </c><c>   2</c></rc>
    <rc><c>C </c><c>   2</c></rc>
    <rc><c>C </c><c>   2</c></rc>
    <rc><c>C </c><c>   2</c></rc>
    <rc><c>C </c><c>   2</c></rc>
    <rc><c>C </c><c>   2</c></rc>
    <rc><c>C </c><c>   2</c></rc>
    <rc><c>C </c><c>   2</c></rc>
    <rc><c>C </c><c>   2</c></rc>
    <rc><c>C </c><c>   2</c></rc>
    <rc><c>C </c><c>   2</c></rc>
    <rc><c>C </c><c>   2</c></rc>
    <rc><c>C </c><c>   2</c></rc>
    <rc><c>C </c><c>   2</c></rc>
    <rc><c>C </c><c>   2</c></rc>
    <rc><c>C </c><c>   2</c></rc>
    <rc><c>C </c><c>   2</c></rc>
    <rc><c>C </c><c>   2</c></rc>
    <rc><c>C </c><c>   2</c></rc>
    <rc><c>C </c><c>   2</c></rc>
    <rc><c>C </c><c>   2</c></rc>
    <rc><c>C </c><c>   2</c></rc>
    <rc><c>C </c><c>   2</c></rc>
    <rc><c>C </c><c>   2</c></rc>
    <rc><c>C </c><c>   2</c></rc>
    <rc><c>C </c><c>   2</c></rc>
    <rc><c>C </c><c>   2</c></rc>
    <rc><c>C </c><c>   2</c></rc>
    <rc><c>C </c><c>   2</c></rc>
    <rc><c>C </c><c>   2</c></rc>
    <rc><c>C </c><c>   2</c></rc>
    <rc><c>C </c><c>   2</c></rc>
    <rc><c>C </c><c>   2</c></rc>
    <rc><c>C </c><c>   2</c></rc>
    <rc><c>C </c><c>   2</c></rc>
    <rc><c>C </c><c>   2</c></rc>
    <rc><c>C </c><c>   2</c></rc>
    <rc><c>C </c><c>   2</c></rc>
    <rc><c>C </c><c>   2</c></rc>
    <rc><c>C </c><c>   2</c></rc>
    <rc><c>C </c><c>   2</c></rc>
    <rc><c>C </c><c>   2</c></rc>
    <rc><c>C </c><c>   2</c></rc>
    <rc><c>C </c><c>   2</c></rc>
    <rc><c>C </c><c>   2</c></rc>
    <rc><c>C </c><c>   2</c></rc>
    <rc><c>C </c><c>   2</c></rc>
    <rc><c>C </c><c>   2</c></rc>
    <rc><c>C </c><c>   2</c></rc>
    <rc><c>C </c><c>   2</c></rc>
    <rc><c>C </c><c>   2</c></rc>
    <rc><c>C </c><c>   2</c></rc>
    <rc><c>C </c><c>   2</c></rc>
    <rc><c>C </c><c>   2</c></rc>
    <rc><c>C </c><c>   2</c></rc>
    <rc><c>C </c><c>   2</c></rc>
    <rc><c>C </c><c>   2</c></rc>
    <rc><c>C </c><c>   2</c></rc>
    <rc><c>C </c><c>   2</c></rc>
    <rc><c>C </c><c>   2</c></rc>
    <rc><c>C </c><c>   2</c></rc>
    <rc><c>C </c><c>   2</c></rc>
    <rc><c>C </c><c>   2</c></rc>
    <rc><c>C </c><c>   2</c></rc>
    <rc><c>C </c><c>   2</c></rc>
    <rc><c>C </c><c>   2</c></rc>
    <rc><c>C </c><c>   2</c></rc>
    <rc><c>C </c><c>   2</c></rc>
    <rc><c>C </c><c>   2</c></rc>
    <rc><c>C </c><c>   2</c></rc>
    <rc><c>C </c><c>   2</c></rc>
    <rc><c>C </c><c>   2</c></rc>
    <rc><c>C </c><c>   2</c></rc>
    <rc><c>C </c><c>   2</c></rc>
    <rc><c>C </c><c>   2</c></rc>
    <rc><c>C </c><c>   2</c></rc>
    <rc><c>C </c><c>   2</c></rc>
    <rc><c>C </c><c>   2</c></rc>
    <rc><c>C </c><c>   2</c></rc>
    <rc><c>C </c><c>   2</c></rc>
    <rc><c>C </c><c>   2</c></rc>
    <rc><c>C </c><c>   2</c></rc>
    <rc><c>C </c><c>   2</c></rc>
    <rc><c>C </c><c>   2</c></rc>
    <rc><c>C </c><c>   2</c></rc>
    <rc><c>C </c><c>   2</c></rc>
    <rc><c>C </c><c>   2</c></rc>
    <rc><c>C </c><c>   2</c></rc>
    <rc><c>C </c><c>   2</c></rc>
    <rc><c>C </c><c>   2</c></rc>
    <rc><c>C </c><c>   2</c></rc>
    <rc><c>C </c><c>   2</c></rc>
    <rc><c>C </c><c>   2</c></rc>
    <rc><c>C </c><c>   2</c></rc>
    <rc><c>C </c><c>   2</c></rc>
    <rc><c>C </c><c>   2</c></rc>
    <rc><c>C </c><c>   2</c></rc>
    <rc><c>C </c><c>   2</c></rc>
    <rc><c>C </c><c>   2</c></rc>
    <rc><c>C </c><c>   2</c></rc>
    <rc><c>C </c><c>   2</c></rc>
    <rc><c>C </c><c>   2</c></rc>
    <rc><c>C </c><c>   2</c></rc>
    <rc><c>C </c><c>   2</c></rc>
    <rc><c>C </c><c>   2</c></rc>
    <rc><c>C </c><c>   2</c></rc>
    <rc><c>C </c><c>   2</c></rc>
    <rc><c>C </c><c>   2</c></rc>
    <rc><c>C </c><c>   2</c></rc>
    <rc><c>C </c><c>   2</c></rc>
    <rc><c>C </c><c>   2</c></rc>
    <rc><c>C </c><c>   2</c></rc>
    <rc><c>C </c><c>   2</c></rc>
    <rc><c>C </c><c>   2</c></rc>
    <rc><c>C </c><c>   2</c></rc>
    <rc><c>C </c><c>   2</c></rc>
    <rc><c>C </c><c>   2</c></rc>
    <rc><c>C </c><c>   2</c></rc>
    <rc><c>C </c><c>   2</c></rc>
    <rc><c>C </c><c>   2</c></rc>
    <rc><c>C </c><c>   2</c></rc>
    <rc><c>C </c><c>   2</c></rc>
    <rc><c>C </c><c>   2</c></rc>
    <rc><c>C </c><c>   2</c></rc>
    <rc><c>C </c><c>   2</c></rc>
    <rc><c>C </c><c>   2</c></rc>
    <rc><c>C </c><c>   2</c></rc>
    <rc><c>C </c><c>   2</c></rc>
    <rc><c>C </c><c>   2</c></rc>
    <rc><c>C </c><c>   2</c></rc>
    <rc><c>C </c><c>   2</c></rc>
    <rc><c>C </c><c>   2</c></rc>
    <rc><c>C </c><c>   2</c></rc>
    <rc><c>C </c><c>   2</c></rc>
    <rc><c>C </c><c>   2</c></rc>
   </set>
  </array>
  <array name="atomtypes" >
   <dimension dim="1">type</dimension>
   <field type="int">atomspertype</field>
   <field type="string">element</field>
   <field>mass</field>
   <field>valence</field>
   <field type="string">pseudopotential</field>
   <set>
    <rc><c>  72</c><c>B </c><c>     10.81100000</c><c>      3.00000000</c><c>  PAW_PBE B 06Sep2000                   </c></rc>
    <rc><c> 216</c><c>C </c><c>     12.01100000</c><c>      4.00000000</c><c>  PAW_PBE C 08Apr2002                   </c></rc>
   </set>
  </array>
 </atominfo>
 <structure name="initialpos" >
  <crystal>
   <varray name="basis" >
    <v>      26.88509060      15.52211311       0.00000000 </v>
    <v>     -26.88509060      15.52211311       0.00000000 </v>
    <v>       0.00000000       0.00000000       8.52022140 </v>
   </varray>
   <i name="volume">   7111.20541775 </i>
   <varray name="rec_basis" >
    <v>       0.01859767       0.03221211       0.00000000 </v>
    <v>      -0.01859767       0.03221211       0.00000000 </v>
    <v>       0.00000000       0.00000000       0.11736784 </v>
   </varray>
  </crystal>
  <varray name="positions" >
   <v>       0.05555550       0.11111100       0.25000000 </v>
   <v>       0.22222217       0.11111100       0.25000000 </v>
   <v>       0.38888883       0.11111100       0.25000000 </v>
   <v>       0.55555550       0.11111100       0.25000000 </v>
   <v>       0.72222217       0.11111100       0.25000000 </v>
   <v>       0.88888883       0.11111100       0.25000000 </v>
   <v>       0.05555550       0.27777767       0.25000000 </v>
   <v>       0.22222217       0.27777767       0.25000000 </v>
   <v>       0.38888883       0.27777767       0.25000000 </v>
   <v>       0.55555550       0.27777767       0.25000000 </v>
   <v>       0.72222217       0.27777767       0.25000000 </v>
   <v>       0.88888883       0.27777767       0.25000000 </v>
   <v>       0.05555550       0.44444433       0.25000000 </v>
   <v>       0.22222217       0.44444433       0.25000000 </v>
   <v>       0.38888883       0.44444433       0.25000000 </v>
   <v>       0.55555550       0.44444433       0.25000000 </v>
   <v>       0.72222217       0.44444433       0.25000000 </v>
   <v>       0.88888883       0.44444433       0.25000000 </v>
   <v>       0.05555550       0.61111100       0.25000000 </v>
   <v>       0.22222217       0.61111100       0.25000000 </v>
   <v>       0.38888883       0.61111100       0.25000000 </v>
   <v>       0.55555550       0.61111100       0.25000000 </v>
   <v>       0.72222217       0.61111100       0.25000000 </v>
   <v>       0.88888883       0.61111100       0.25000000 </v>
   <v>       0.05555550       0.77777767       0.25000000 </v>
   <v>       0.22222217       0.77777767       0.25000000 </v>
   <v>       0.38888883       0.77777767       0.25000000 </v>
   <v>       0.55555550       0.77777767       0.25000000 </v>
   <v>       0.72222217       0.77777767       0.25000000 </v>
   <v>       0.88888883       0.77777767       0.25000000 </v>
   <v>       0.05555550       0.94444433       0.25000000 </v>
   <v>       0.22222217       0.94444433       0.25000000 </v>
   <v>       0.38888883       0.94444433       0.25000000 </v>
   <v>       0.55555550       0.94444433       0.25000000 </v>
   <v>       0.72222217       0.94444433       0.25000000 </v>
   <v>       0.88888883       0.94444433       0.25000000 </v>
   <v>       0.11111100       0.05555550       0.25000000 </v>
   <v>       0.27777767       0.05555550       0.25000000 </v>
   <v>       0.44444433       0.05555550       0.25000000 </v>
   <v>       0.61111100       0.05555550       0.25000000 </v>
   <v>       0.77777767       0.05555550       0.25000000 </v>
   <v>       0.94444433       0.05555550       0.25000000 </v>
   <v>       0.11111100       0.22222217       0.25000000 </v>
   <v>       0.27777767       0.22222217       0.25000000 </v>
   <v>       0.44444433       0.22222217       0.25000000 </v>
   <v>       0.61111100       0.22222217       0.25000000 </v>
   <v>       0.77777767       0.22222217       0.25000000 </v>
   <v>       0.94444433       0.22222217       0.25000000 </v>
   <v>       0.11111100       0.38888883       0.25000000 </v>
   <v>       0.27777767       0.38888883       0.25000000 </v>
   <v>       0.44444433       0.38888883       0.25000000 </v>
   <v>       0.61111100       0.38888883       0.25000000 </v>
   <v>       0.77777767       0.38888883       0.25000000 </v>
   <v>       0.94444433       0.38888883       0.25000000 </v>
   <v>       0.11111100       0.55555550       0.25000000 </v>
   <v>       0.27777767       0.55555550       0.25000000 </v>
   <v>       0.44444433       0.55555550       0.25000000 </v>
   <v>       0.61111100       0.55555550       0.25000000 </v>
   <v>       0.77777767       0.55555550       0.25000000 </v>
   <v>       0.94444433       0.55555550       0.25000000 </v>
   <v>       0.11111100       0.72222217       0.25000000 </v>
   <v>       0.27777767       0.72222217       0.25000000 </v>
   <v>       0.44444433       0.72222217       0.25000000 </v>
   <v>       0.61111100       0.72222217       0.25000000 </v>
   <v>       0.77777767       0.72222217       0.25000000 </v>
   <v>       0.94444433       0.72222217       0.25000000 </v>
   <v>       0.11111100       0.88888883       0.25000000 </v>
   <v>       0.27777767       0.88888883       0.25000000 </v>
   <v>       0.44444433       0.88888883       0.25000000 </v>
   <v>       0.61111100       0.88888883       0.25000000 </v>
   <v>       0.77777767       0.88888883       0.25000000 </v>
   <v>       0.94444433       0.88888883       0.25000000 </v>
   <v>       0.02644854       0.05289725       0.25000000 </v>
   <v>       0.19311521       0.05289725       0.25000000 </v>
   <v>       0.35978187       0.05289725       0.25000000 </v>
   <v>       0.52644854       0.05289725       0.25000000 </v>
   <v>       0.69311521       0.05289725       0.25000000 </v>
   <v>       0.85978187       0.05289725       0.25000000 </v>
   <v>       0.02644854       0.21956391       0.25000000 </v>
   <v>       0.19311521       0.21956391       0.25000000 </v>
   <v>       0.35978187       0.21956391       0.25000000 </v>
   <v>       0.52644854       0.21956391       0.25000000 </v>
   <v>       0.69311521       0.21956391       0.25000000 </v>
   <v>       0.85978187       0.21956391       0.25000000 </v>
   <v>       0.02644854       0.38623058       0.25000000 </v>
   <v>       0.19311521       0.38623058       0.25000000 </v>
   <v>       0.35978187       0.38623058       0.25000000 </v>
   <v>       0.52644854       0.38623058       0.25000000 </v>
   <v>       0.69311521       0.38623058       0.25000000 </v>
   <v>       0.85978187       0.38623058       0.25000000 </v>
   <v>       0.02644854       0.55289725       0.25000000 </v>
   <v>       0.19311521       0.55289725       0.25000000 </v>
   <v>       0.35978187       0.55289725       0.25000000 </v>
   <v>       0.52644854       0.55289725       0.25000000 </v>
   <v>       0.69311521       0.55289725       0.25000000 </v>
   <v>       0.85978187       0.55289725       0.25000000 </v>
   <v>       0.02644854       0.71956391       0.25000000 </v>
   <v>       0.19311521       0.71956391       0.25000000 </v>
   <v>       0.35978187       0.71956391       0.25000000 </v>
   <v>       0.52644854       0.71956391       0.25000000 </v>
   <v>       0.69311521       0.71956391       0.25000000 </v>
   <v>       0.85978187       0.71956391       0.25000000 </v>
   <v>       0.02644854       0.88623058       0.25000000 </v>
   <v>       0.19311521       0.88623058       0.25000000 </v>
   <v>       0.35978187       0.88623058       0.25000000 </v>
   <v>       0.52644854       0.88623058       0.25000000 </v>
   <v>       0.69311521       0.88623058       0.25000000 </v>
   <v>       0.85978187       0.88623058       0.25000000 </v>
   <v>       0.05289725       0.02644854       0.25000000 </v>
   <v>       0.21956391       0.02644854       0.25000000 </v>
   <v>       0.38623058       0.02644854       0.25000000 </v>
   <v>       0.55289725       0.02644854       0.25000000 </v>
   <v>       0.71956391       0.02644854       0.25000000 </v>
   <v>       0.88623058       0.02644854       0.25000000 </v>
   <v>       0.05289725       0.19311521       0.25000000 </v>
   <v>       0.21956391       0.19311521       0.25000000 </v>
   <v>       0.38623058       0.19311521       0.25000000 </v>
   <v>       0.55289725       0.19311521       0.25000000 </v>
   <v>       0.71956391       0.19311521       0.25000000 </v>
   <v>       0.88623058       0.19311521       0.25000000 </v>
   <v>       0.05289725       0.35978187       0.25000000 </v>
   <v>       0.21956391       0.35978187       0.25000000 </v>
   <v>       0.38623058       0.35978187       0.25000000 </v>
   <v>       0.55289725       0.35978187       0.25000000 </v>
   <v>       0.71956391       0.35978187       0.25000000 </v>
   <v>       0.88623058       0.35978187       0.25000000 </v>
   <v>       0.05289725       0.52644854       0.25000000 </v>
   <v>       0.21956391       0.52644854       0.25000000 </v>
   <v>       0.38623058       0.52644854       0.25000000 </v>
   <v>       0.55289725       0.52644854       0.25000000 </v>
   <v>       0.71956391       0.52644854       0.25000000 </v>
   <v>       0.88623058       0.52644854       0.25000000 </v>
   <v>       0.05289725       0.69311521       0.25000000 </v>
   <v>       0.21956391       0.69311521       0.25000000 </v>
   <v>       0.38623058       0.69311521       0.25000000 </v>
   <v>       0.55289725       0.69311521       0.25000000 </v>
   <v>       0.71956391       0.69311521       0.25000000 </v>
   <v>       0.88623058       0.69311521       0.25000000 </v>
   <v>       0.05289725       0.85978187       0.25000000 </v>
   <v>       0.21956391       0.85978187       0.25000000 </v>
   <v>       0.38623058       0.85978187       0.25000000 </v>
   <v>       0.55289725       0.85978187       0.25000000 </v>
   <v>       0.71956391       0.85978187       0.25000000 </v>
   <v>       0.88623058       0.85978187       0.25000000 </v>
   <v>       0.02644854       0.14021796       0.25000000 </v>
   <v>       0.19311521       0.14021796       0.25000000 </v>
   <v>       0.35978187       0.14021796       0.25000000 </v>
   <v>       0.52644854       0.14021796       0.25000000 </v>
   <v>       0.69311521       0.14021796       0.25000000 </v>
   <v>       0.85978187       0.14021796       0.25000000 </v>
   <v>       0.02644854       0.30688463       0.25000000 </v>
   <v>       0.19311521       0.30688463       0.25000000 </v>
   <v>       0.35978187       0.30688463       0.25000000 </v>
   <v>       0.52644854       0.30688463       0.25000000 </v>
   <v>       0.69311521       0.30688463       0.25000000 </v>
   <v>       0.85978187       0.30688463       0.25000000 </v>
   <v>       0.02644854       0.47355129       0.25000000 </v>
   <v>       0.19311521       0.47355129       0.25000000 </v>
   <v>       0.35978187       0.47355129       0.25000000 </v>
   <v>       0.52644854       0.47355129       0.25000000 </v>
   <v>       0.69311521       0.47355129       0.25000000 </v>
   <v>       0.85978187       0.47355129       0.25000000 </v>
   <v>       0.02644854       0.64021796       0.25000000 </v>
   <v>       0.19311521       0.64021796       0.25000000 </v>
   <v>       0.35978187       0.64021796       0.25000000 </v>
   <v>       0.52644854       0.64021796       0.25000000 </v>
   <v>       0.69311521       0.64021796       0.25000000 </v>
   <v>       0.85978187       0.64021796       0.25000000 </v>
   <v>       0.02644854       0.80688463       0.25000000 </v>
   <v>       0.19311521       0.80688463       0.25000000 </v>
   <v>       0.35978187       0.80688463       0.25000000 </v>
   <v>       0.52644854       0.80688463       0.25000000 </v>
   <v>       0.69311521       0.80688463       0.25000000 </v>
   <v>       0.85978187       0.80688463       0.25000000 </v>
   <v>       0.02644854       0.97355129       0.25000000 </v>
   <v>       0.19311521       0.97355129       0.25000000 </v>
   <v>       0.35978187       0.97355129       0.25000000 </v>
   <v>       0.52644854       0.97355129       0.25000000 </v>
   <v>       0.69311521       0.97355129       0.25000000 </v>
   <v>       0.85978187       0.97355129       0.25000000 </v>
   <v>       0.14021796       0.02644854       0.25000000 </v>
   <v>       0.30688463       0.02644854       0.25000000 </v>
   <v>       0.47355129       0.02644854       0.25000000 </v>
   <v>       0.64021796       0.02644854       0.25000000 </v>
   <v>       0.80688463       0.02644854       0.25000000 </v>
   <v>       0.97355129       0.02644854       0.25000000 </v>
   <v>       0.14021796       0.19311521       0.25000000 </v>
   <v>       0.30688463       0.19311521       0.25000000 </v>
   <v>       0.47355129       0.19311521       0.25000000 </v>
   <v>       0.64021796       0.19311521       0.25000000 </v>
   <v>       0.80688463       0.19311521       0.25000000 </v>
   <v>       0.97355129       0.19311521       0.25000000 </v>
   <v>       0.14021796       0.35978187       0.25000000 </v>
   <v>       0.30688463       0.35978187       0.25000000 </v>
   <v>       0.47355129       0.35978187       0.25000000 </v>
   <v>       0.64021796       0.35978187       0.25000000 </v>
   <v>       0.80688463       0.35978187       0.25000000 </v>
   <v>       0.97355129       0.35978187       0.25000000 </v>
   <v>       0.14021796       0.52644854       0.25000000 </v>
   <v>       0.30688463       0.52644854       0.25000000 </v>
   <v>       0.47355129       0.52644854       0.25000000 </v>
   <v>       0.64021796       0.52644854       0.25000000 </v>
   <v>       0.80688463       0.52644854       0.25000000 </v>
   <v>       0.97355129       0.52644854       0.25000000 </v>
   <v>       0.14021796       0.69311521       0.25000000 </v>
   <v>       0.30688463       0.69311521       0.25000000 </v>
   <v>       0.47355129       0.69311521       0.25000000 </v>
   <v>       0.64021796       0.69311521       0.25000000 </v>
   <v>       0.80688463       0.69311521       0.25000000 </v>
   <v>       0.97355129       0.69311521       0.25000000 </v>
   <v>       0.14021796       0.85978187       0.25000000 </v>
   <v>       0.30688463       0.85978187       0.25000000 </v>
   <v>       0.47355129       0.85978187       0.25000000 </v>
   <v>       0.64021796       0.85978187       0.25000000 </v>
   <v>       0.80688463       0.85978187       0.25000000 </v>
   <v>       0.97355129       0.85978187       0.25000000 </v>
   <v>       0.11376925       0.14021796       0.25000000 </v>
   <v>       0.28043592       0.14021796       0.25000000 </v>
   <v>       0.44710259       0.14021796       0.25000000 </v>
   <v>       0.61376925       0.14021796       0.25000000 </v>
   <v>       0.78043592       0.14021796       0.25000000 </v>
   <v>       0.94710259       0.14021796       0.25000000 </v>
   <v>       0.11376925       0.30688463       0.25000000 </v>
   <v>       0.28043592       0.30688463       0.25000000 </v>
   <v>       0.44710259       0.30688463       0.25000000 </v>
   <v>       0.61376925       0.30688463       0.25000000 </v>
   <v>       0.78043592       0.30688463       0.25000000 </v>
   <v>       0.94710259       0.30688463       0.25000000 </v>
   <v>       0.11376925       0.47355129       0.25000000 </v>
   <v>       0.28043592       0.47355129       0.25000000 </v>
   <v>       0.44710259       0.47355129       0.25000000 </v>
   <v>       0.61376925       0.47355129       0.25000000 </v>
   <v>       0.78043592       0.47355129       0.25000000 </v>
   <v>       0.94710259       0.47355129       0.25000000 </v>
   <v>       0.11376925       0.64021796       0.25000000 </v>
   <v>       0.28043592       0.64021796       0.25000000 </v>
   <v>       0.44710259       0.64021796       0.25000000 </v>
   <v>       0.61376925       0.64021796       0.25000000 </v>
   <v>       0.78043592       0.64021796       0.25000000 </v>
   <v>       0.94710259       0.64021796       0.25000000 </v>
   <v>       0.11376925       0.80688463       0.25000000 </v>
   <v>       0.28043592       0.80688463       0.25000000 </v>
   <v>       0.44710259       0.80688463       0.25000000 </v>
   <v>       0.61376925       0.80688463       0.25000000 </v>
   <v>       0.78043592       0.80688463       0.25000000 </v>
   <v>       0.94710259       0.80688463       0.25000000 </v>
   <v>       0.11376925       0.97355129       0.25000000 </v>
   <v>       0.28043592       0.97355129       0.25000000 </v>
   <v>       0.44710259       0.97355129       0.25000000 </v>
   <v>       0.61376925       0.97355129       0.25000000 </v>
   <v>       0.78043592       0.97355129       0.25000000 </v>
   <v>       0.94710259       0.97355129       0.25000000 </v>
   <v>       0.14021796       0.11376925       0.25000000 </v>
   <v>       0.30688463       0.11376925       0.25000000 </v>
   <v>       0.47355129       0.11376925       0.25000000 </v>
   <v>       0.64021796       0.11376925       0.25000000 </v>
   <v>       0.80688463       0.11376925       0.25000000 </v>
   <v>       0.97355129       0.11376925       0.25000000 </v>
   <v>       0.14021796       0.28043592       0.25000000 </v>
   <v>       0.30688463       0.28043592       0.25000000 </v>
   <v>       0.47355129       0.28043592       0.25000000 </v>
   <v>       0.64021796       0.28043592       0.25000000 </v>
   <v>       0.80688463       0.28043592       0.25000000 </v>
   <v>       0.97355129       0.28043592       0.25000000 </v>
   <v>       0.14021796       0.44710259       0.25000000 </v>
   <v>       0.30688463       0.44710259       0.25000000 </v>
   <v>       0.47355129       0.44710259       0.25000000 </v>
   <v>       0.64021796       0.44710259       0.25000000 </v>
   <v>       0.80688463       0.44710259       0.25000000 </v>
   <v>       0.97355129       0.44710259       0.25000000 </v>
   <v>       0.14021796       0.61376925       0.25000000 </v>
   <v>       0.30688463       0.61376925       0.25000000 </v>
   <v>       0.47355129       0.61376925       0.25000000 </v>
   <v>       0.64021796       0.61376925       0.25000000 </v>
   <v>       0.80688463       0.61376925       0.25000000 </v>
   <v>       0.97355129       0.61376925       0.25000000 </v>
   <v>       0.14021796       0.78043592       0.25000000 </v>
   <v>       0.30688463       0.78043592       0.25000000 </v>
   <v>       0.47355129       0.78043592       0.25000000 </v>
   <v>       0.64021796       0.78043592       0.25000000 </v>
   <v>       0.80688463       0.78043592       0.25000000 </v>
   <v>       0.97355129       0.78043592       0.25000000 </v>
   <v>       0.14021796       0.94710259       0.25000000 </v>
   <v>       0.30688463       0.94710259       0.25000000 </v>
   <v>       0.47355129       0.94710259       0.25000000 </v>
   <v>       0.64021796       0.94710259       0.25000000 </v>
   <v>       0.80688463       0.94710259       0.25000000 </v>
   <v>       0.97355129       0.94710259       0.25000000 </v>
  </varray>
 </structure>
 <calculation>
  <scstep>
