<?xml version="1.0" encoding="ISO-8859-1"?>
<modeling>
 <generator>
  <i name="program" type="string">vasp </i>
  <i name="version" type="string">5.4.4.18Apr17-6-g9f103f2a35  </i>
  <i name="subversion" type="string">(build Mar 30 2023 15:39:25) complex            parallel </i>
  <i name="platform" type="string">LinuxIFC </i>
  <i name="date" type="string">2023 06 22 </i>
  <i name="time" type="string">12:46:21 </i>
 </generator>
 <incar>
  <i type="string" name="SYSTEM"> BC3</i>
  <i type="int" name="ISTART">     0</i>
  <i type="string" name="PREC">accurate</i>
  <i type="string" name="ALGO"> Normal</i>
  <i type="int" name="ICHARG">     2</i>
  <i type="int" name="NELM">   200</i>
  <i type="int" name="IBRION">     8</i>
  <i name="EDIFF">      0.00000100</i>
  <i name="EDIFFG">     -0.00100000</i>
  <i type="int" name="NSW">     1</i>
  <i type="int" name="ISIF">     2</i>
  <i name="ENCUT">    450.00000000</i>
  <i type="int" name="ISMEAR">     0</i>
  <i name="SIGMA">      0.10000000</i>
  <v type="int" name="KPOINT_BSE">    -1     0     0     0</v>
  <i type="int" name="NELM">   200</i>
 </incar>
 <structure name="primitive_cell" >
  <crystal>
   <varray name="basis" >
    <v>       4.48084843       2.58701885       0.00000000 </v>
    <v>      -4.48084843       2.58701885       0.00000000 </v>
    <v>       0.00000000       0.00000000       8.52022140 </v>
   </varray>
   <i name="volume">    197.53348383 </i>
   <varray name="rec_basis" >
    <v>       0.11158601       0.19327265       0.00000000 </v>
    <v>      -0.11158601       0.19327265       0.00000000 </v>
    <v>       0.00000000       0.00000000       0.11736784 </v>
   </varray>
  </crystal>
  <varray name="positions" >
   <v>       0.33333300      -0.33333400       0.25000000 </v>
   <v>       0.15869124       0.31738348       0.25000000 </v>
   <v>      -0.31738448      -0.15869224       0.25000000 </v>
   <v>       0.15869124      -0.15869224       0.25000000 </v>
   <v>      -0.15869224       0.15869124       0.25000000 </v>
   <v>       0.31738348       0.15869124       0.25000000 </v>
   <v>      -0.15869224      -0.31738448       0.25000000 </v>
   <v>      -0.33333400       0.33333300       0.25000000 </v>
  </varray>
 </structure>
 <varray name="primitive_index" >
  <v type="int" >        1 </v>
  <v type="int" >       19 </v>
  <v type="int" >       55 </v>
  <v type="int" >       37 </v>
  <v type="int" >       49 </v>
  <v type="int" >       28 </v>
  <v type="int" >       64 </v>
  <v type="int" >       10 </v>
 </varray>
 <kpoints>
  <generation param="Gamma">
   <v type="int" name="divisions">       4        4        1 </v>
   <v name="usershift">      0.00000000       0.00000000       0.00000000 </v>
   <v name="genvec1">      0.25000000       0.00000000       0.00000000 </v>
   <v name="genvec2">      0.00000000       0.25000000       0.00000000 </v>
   <v name="genvec3">      0.00000000       0.00000000       1.00000000 </v>
   <v name="shift">      0.00000000       0.00000000       0.00000000 </v>
  </generation>
  <varray name="kpointlist" >
   <v>       0.00000000       0.00000000       0.00000000 </v>
   <v>       0.25000000      -0.00000000       0.00000000 </v>
   <v>       0.50000000      -0.00000000       0.00000000 </v>
   <v>       0.25000000       0.25000000       0.00000000 </v>
  </varray>
  <varray name="weights" >
   <v>       0.06250000 </v>
   <v>       0.37500000 </v>
   <v>       0.18750000 </v>
   <v>       0.37500000 </v>
  </varray>
 </kpoints>
 <parameters>
  <separator name="general" >
   <i type="string" name="SYSTEM">BC3</i>
   <i type="logical" name="LCOMPAT"> F  </i>
  </separator>
  <separator name="electronic" >
   <i type="string" name="PREC">accura</i>
   <i name="ENMAX">    450.00000000</i>
   <i name="ENAUG">    644.87300000</i>
   <i name="EDIFF">      0.00000100</i>
   <i type="int" name="IALGO">    38</i>
   <i type="int" name="IWAVPR">    11</i>
   <i type="int" name="NBANDS">   180</i>
   <i name="NELECT">    270.00000000</i>
   <i type="int" name="TURBO">     0</i>
   <i type="int" name="IRESTART">     0</i>
   <i type="int" name="NREBOOT">     0</i>
   <i type="int" name="NMIN">     0</i>
   <i name="EREF">      0.00000000</i>
   <separator name="electronic smearing" >
    <i type="int" name="ISMEAR">     0</i>
    <i name="SIGMA">      0.10000000</i>
    <i name="KSPACING">      0.50000000</i>
    <i type="logical" name="KGAMMA"> T  </i>
   </separator>
   <separator name="electronic projectors" >
    <i type="logical" name="LREAL"> F  </i>
    <v name="ROPT">      0.00000000      0.00000000</v>
    <i type="int" name="LMAXPAW">  -100</i>
    <i type="int" name="LMAXMIX">     2</i>
    <i type="logical" name="NLSPLINE"> F  </i>
   </separator>
   <separator name="electronic startup" >
    <i type="int" name="ISTART">     0</i>
    <i type="int" name="ICHARG">     2</i>
    <i type="int" name="INIWAV">     1</i>
   </separator>
   <separator name="electronic spin" >
    <i type="int" name="ISPIN">     1</i>
    <i type="logical" name="LNONCOLLINEAR"> F  </i>
    <v name="MAGMOM">      1.00000000      1.00000000      1.00000000      1.00000000      1.00000000      1.00000000      1.00000000      1.00000000      1.00000000      1.00000000      1.00000000      1.00000000      1.00000000      1.00000000      1.00000000      1.00000000      1.00000000      1.00000000      1.00000000      1.00000000
      1.00000000      1.00000000      1.00000000      1.00000000      1.00000000      1.00000000      1.00000000      1.00000000      1.00000000      1.00000000      1.00000000      1.00000000      1.00000000      1.00000000      1.00000000      1.00000000      1.00000000      1.00000000      1.00000000      1.00000000
      1.00000000      1.00000000      1.00000000      1.00000000      1.00000000      1.00000000      1.00000000      1.00000000      1.00000000      1.00000000      1.00000000      1.00000000      1.00000000      1.00000000      1.00000000      1.00000000      1.00000000      1.00000000      1.00000000      1.00000000
      1.00000000      1.00000000      1.00000000      1.00000000      1.00000000      1.00000000      1.00000000      1.00000000      1.00000000      1.00000000      1.00000000      1.00000000</v>
    <i name="NUPDOWN">     -1.00000000</i>
    <i type="logical" name="LSORBIT"> F  </i>
    <v name="SAXIS">      0.00000000      0.00000000      1.00000000</v>
    <i type="logical" name="LSPIRAL"> F  </i>
    <v name="QSPIRAL">      0.00000000      0.00000000      0.00000000</v>
    <i type="logical" name="LZEROZ"> F  </i>
   </separator>
   <separator name="electronic exchange-correlation" >
    <i type="logical" name="LASPH"> F  </i>
    <i type="logical" name="LMETAGGA"> F  </i>
   </separator>
   <separator name="electronic convergence" >
    <i type="int" name="NELM">   200</i>
    <i type="int" name="NELMDL">    -5</i>
    <i type="int" name="NELMIN">     2</i>
    <i name="ENINI">    450.00000000</i>
    <separator name="electronic convergence detail" >
     <i type="logical" name="LDIAG"> T  </i>
     <i type="logical" name="LSUBROT"> F  </i>
     <i name="WEIMIN">      0.00100000</i>
     <i name="EBREAK">      0.00000000</i>
     <i name="DEPER">      0.30000000</i>
     <i type="int" name="NRMM">     4</i>
     <i name="TIME">      0.40000000</i>
    </separator>
   </separator>
   <separator name="electronic mixer" >
    <i name="AMIX">      0.40000000</i>
    <i name="BMIX">      1.00000000</i>
    <i name="AMIN">      0.10000000</i>
    <i name="AMIX_MAG">      1.60000000</i>
    <i name="BMIX_MAG">      1.00000000</i>
    <separator name="electronic mixer details" >
     <i type="int" name="IMIX">     4</i>
     <i type="logical" name="MIXFIRST"> F  </i>
     <i type="int" name="MAXMIX">   -45</i>
     <i name="WC">    100.00000000</i>
     <i type="int" name="INIMIX">     1</i>
     <i type="int" name="MIXPRE">     1</i>
     <i type="int" name="MREMOVE">     5</i>
    </separator>
   </separator>
   <separator name="electronic dipolcorrection" >
    <i type="logical" name="LDIPOL"> F  </i>
    <i type="logical" name="LMONO"> F  </i>
    <i type="int" name="IDIPOL">     0</i>
    <i name="EPSILON">      1.00000000</i>
    <v name="DIPOL">   -100.00000000   -100.00000000   -100.00000000</v>
    <i name="EFIELD">      0.00000000</i>
   </separator>
  </separator>
  <separator name="grids" >
   <i type="int" name="NGX">   108</i>
   <i type="int" name="NGY">   108</i>
   <i type="int" name="NGZ">    60</i>
   <i type="int" name="NGXF">   216</i>
   <i type="int" name="NGYF">   216</i>
   <i type="int" name="NGZF">   120</i>
   <i type="logical" name="ADDGRID"> F  </i>
  </separator>
  <separator name="ionic" >
   <i type="int" name="NSW">     1</i>
   <i type="int" name="IBRION">     8</i>
   <i type="int" name="MDALGO">     0</i>
   <i type="int" name="ISIF">     2</i>
   <i name="PSTRESS">      0.00000000</i>
   <i name="EDIFFG">     -0.00100000</i>
   <i type="int" name="NFREE">     0</i>
   <i name="POTIM">      0.50000000</i>
   <i name="SMASS">     -3.00000000</i>
   <i name="SCALEE">      1.00000000</i>
  </separator>
  <separator name="ionic md" >
   <i name="TEBEG">      0.00010000</i>
   <i name="TEEND">      0.00010000</i>
   <i type="int" name="NBLOCK">     1</i>
   <i type="int" name="KBLOCK">     1</i>
   <i type="int" name="NPACO">   256</i>
   <i name="APACO">     16.00000000</i>
  </separator>
  <separator name="symmetry" >
   <i type="int" name="ISYM">     2</i>
   <i name="SYMPREC">      0.00001000</i>
  </separator>
  <separator name="dos" >
   <i type="int" name="LORBIT">     0</i>
   <v name="RWIGS">     -1.00000000     -1.00000000</v>
   <i type="int" name="NEDOS">   301</i>
   <i name="EMIN">     10.00000000</i>
   <i name="EMAX">    -10.00000000</i>
   <i name="EFERMI">      0.00000000</i>
  </separator>
  <separator name="writing" >
   <i type="int" name="NWRITE">     2</i>
   <i type="logical" name="LWAVE"> T  </i>
   <i type="logical" name="LDOWNSAMPLE"> F  </i>
   <i type="logical" name="LCHARG"> T  </i>
   <i type="logical" name="LPARD"> F  </i>
   <i type="logical" name="LVTOT"> F  </i>
   <i type="logical" name="LVHAR"> F  </i>
   <i type="logical" name="LELF"> F  </i>
   <i type="logical" name="LOPTICS"> F  </i>
   <v name="STM">      0.00000000      0.00000000      0.00000000      0.00000000      0.00000000      0.00000000      0.00000000</v>
  </separator>
  <separator name="performance" >
   <i type="int" name="NPAR">    12</i>
   <i type="int" name="NSIM">     4</i>
   <i type="int" name="NBLK">    -1</i>
   <i type="logical" name="LPLANE"> T  </i>
   <i type="logical" name="LSCALAPACK"> T  </i>
   <i type="logical" name="LSCAAWARE"> F  </i>
   <i type="logical" name="LSCALU"> F  </i>
   <i type="logical" name="LASYNC"> F  </i>
   <i type="logical" name="LORBITALREAL"> F  </i>
  </separator>
  <separator name="miscellaneous" >
   <i type="int" name="IDIOT">     3</i>
   <i type="int" name="ISPECIAL">     0</i>
   <i type="logical" name="LMUSIC"> F  </i>
   <v name="POMASS">     10.81100000     12.01100000</v>
   <v name="DARWINR">      0.00000000      0.00000000</v>
   <v name="DARWINV">      1.00000000      1.00000000</v>
   <i type="logical" name="LCORR"> T  </i>
  </separator>
  <i type="logical" name="GGA_COMPAT"> T  </i>
  <i type="logical" name="LBERRY"> F  </i>
  <i type="int" name="ICORELEVEL">     0</i>
  <i type="logical" name="LDAU"> F  </i>
  <i type="int" name="I_CONSTRAINED_M">     0</i>
  <separator name="electronic exchange-correlation" >
   <i type="string" name="GGA">--</i>
   <i type="int" name="VOSKOWN">     0</i>
   <i type="logical" name="LHFCALC"> F  </i>
   <i type="string" name="PRECFOCK"></i>
   <i type="logical" name="LSYMGRAD"> F  </i>
   <i type="logical" name="LHFONE"> F  </i>
   <i type="logical" name="LRHFCALC"> F  </i>
   <i type="logical" name="LTHOMAS"> F  </i>
   <i type="logical" name="LMODELHF"> F  </i>
   <i name="ENCUT4O">     -1.00000000</i>
   <i type="int" name="EXXOEP">     0</i>
   <i type="int" name="FOURORBIT">     0</i>
   <i name="AEXX">      0.00000000</i>
   <i name="HFALPHA">      0.00000000</i>
   <i name="MCALPHA">      0.00000000</i>
   <i name="ALDAX">      1.00000000</i>
   <i name="AGGAX">      1.00000000</i>
   <i name="ALDAC">      1.00000000</i>
   <i name="AGGAC">      1.00000000</i>
   <i type="int" name="NKREDX">     1</i>
   <i type="int" name="NKREDY">     1</i>
   <i type="int" name="NKREDZ">     1</i>
   <i type="logical" name="SHIFTRED"> F  </i>
   <i type="logical" name="ODDONLY"> F  </i>
   <i type="logical" name="EVENONLY"> F  </i>
   <i type="int" name="LMAXFOCK">     0</i>
   <i type="int" name="NMAXFOCKAE">     0</i>
   <i type="logical" name="LFOCKAEDFT"> F  </i>
   <i name="HFSCREEN">      0.00000000</i>
   <i name="HFSCREENC">      0.00000000</i>
   <i type="int" name="NBANDSGWLOW">     0</i>
  </separator>
  <separator name="vdW DFT" >
   <i type="logical" name="LUSE_VDW"> F  </i>
   <i name="Zab_VDW">     -0.84910000</i>
   <i name="PARAM1">      0.12340000</i>
   <i name="PARAM2">      1.00000000</i>
   <i name="PARAM3">      0.00000000</i>
  </separator>
  <separator name="model GW" >
   <i type="int" name="MODEL_GW">     0</i>
   <i name="MODEL_EPS0">     14.81501129</i>
   <i name="MODEL_ALPHA">      1.00000000</i>
  </separator>
  <separator name="linear response parameters" >
   <i type="logical" name="LEPSILON"> F  </i>
   <i type="logical" name="LRPA"> F  </i>
   <i type="logical" name="LNABLA"> F  </i>
   <i type="logical" name="LVEL"> F  </i>
   <i type="int" name="KINTER">     0</i>
   <i name="CSHIFT">      0.10000000</i>
   <i name="OMEGAMAX">     -1.00000000</i>
   <i name="DEG_THRESHOLD">      0.00200000</i>
   <i name="RTIME">     -0.10000000</i>
   <i name="WPLASMAI">      0.00000000</i>
   <v name="DFIELD">      0.00000000      0.00000000      0.00000000</v>
   <v name="WPLASMA">      0.00000000      0.00000000      0.00000000      0.00000000      0.00000000      0.00000000      0.00000000      0.00000000      0.00000000</v>
  </separator>
  <separator name="orbital magnetization" >
   <i type="logical" name="NUCIND"> F  </i>
   <v name="MAGPOS">      0.00000000      0.00000000      0.00000000</v>
   <i type="logical" name="LNICSALL"> T  </i>
   <i type="logical" name="ORBITALMAG"> F  </i>
   <i type="logical" name="LMAGBLOCH"> F  </i>
   <i type="logical" name="LCHIMAG"> F  </i>
   <i type="logical" name="LGAUGE"> T  </i>
   <i type="int" name="MAGATOM">     0</i>
   <v name="MAGDIPOL">      0.00000000      0.00000000      0.00000000</v>
   <v name="AVECCONST">      0.00000000      0.00000000      0.00000000</v>
  </separator>
  <separator name="response functions" >
   <i type="logical" name="LADDER"> F  </i>
   <i type="logical" name="LRPAFORCE"> F  </i>
   <i type="logical" name="LFXC"> F  </i>
   <i type="logical" name="LHARTREE"> T  </i>
   <i type="int" name="IBSE">     0</i>
   <v type="int" name="KPOINT">    -1     0     0     0</v>
   <i type="logical" name="LTCTE"> F  </i>
   <i type="logical" name="LTETE"> F  </i>
   <i type="logical" name="LTRIPLET"> F  </i>
   <i type="logical" name="LFXCEPS"> F  </i>
   <i type="logical" name="LFXHEG"> F  </i>
   <i type="int" name="NATURALO">     2</i>
   <i type="logical" name="L2ORDER"> F  </i>
   <i type="logical" name="LMP2LT"> F  </i>
   <i type="logical" name="LUSEW"> F  </i>
   <i name="ENCUTGW">     -2.00000000</i>
   <i name="ENCUTGWSOFT">     -2.00000000</i>
   <i name="ENCUTLF">     -1.00000000</i>
   <i type="int" name="LMAXMP2">    -1</i>
   <i name="SCISSOR">      0.00000000</i>
   <i type="int" name="NOMEGA">     0</i>
   <i type="int" name="NOMEGAR">     0</i>
   <i type="int" name="NBANDSGW">    -1</i>
   <i type="int" name="NBANDSO">    -1</i>
   <i type="int" name="NBANDSV">    -1</i>
   <i type="int" name="NELM">   200</i>
   <i type="int" name="NELMHF">     1</i>
   <i type="int" name="DIM">     3</i>
   <i type="int" name="ANTIRES">     0</i>
   <i name="OMEGAMAX">    -30.00000000</i>
   <i name="OMEGAMIN">    -30.00000000</i>
   <i name="OMEGATL">   -200.00000000</i>
   <i type="int" name="OMEGAGRID">   140</i>
   <i name="CSHIFT">     -0.10000000</i>
   <i type="logical" name="SELFENERGY"> F  </i>
   <i type="logical" name="LSPECTRAL"> F  </i>
   <i type="logical" name="LSPECTRALGW"> F  </i>
   <i type="logical" name="LSINGLES"> F  </i>
   <i type="logical" name="LFERMIGW"> F  </i>
   <i type="logical" name="ODDONLYGW"> F  </i>
   <i type="logical" name="EVENONLYGW"> F  </i>
   <i type="int" name="NKREDLFX">     1</i>
   <i type="int" name="NKREDLFY">     1</i>
   <i type="int" name="NKREDLFZ">     1</i>
   <i type="int" name="MAXMEM">  2800</i>
   <i type="int" name="TELESCOPE">     0</i>
   <i type="int" name="TAUPAR">     1</i>
   <i type="int" name="OMEGAPAR">    -1</i>
   <i name="LAMBDA">      1.00000000</i>
  </separator>
  <separator name="External order field" >
   <i name="OFIELD_KAPPA">      0.00000000</i>
   <v name="OFIELD_K">      0.00000000      0.00000000      0.00000000</v>
   <i name="OFIELD_Q6_NEAR">      0.00000000</i>
   <i name="OFIELD_Q6_FAR">      0.00000000</i>
   <i name="OFIELD_A">      0.00000000</i>
  </separator>
 </parameters>
 <atominfo>
  <atoms>      72 </atoms>
  <types>       2 </types>
  <array name="atoms" >
   <dimension dim="1">ion</dimension>
   <field type="string">element</field>
   <field type="int">atomtype</field>
   <set>
    <rc><c>B </c><c>   1</c></rc>
    <rc><c>B </c><c>   1</c></rc>
    <rc><c>B </c><c>   1</c></rc>
    <rc><c>B </c><c>   1</c></rc>
    <rc><c>B </c><c>   1</c></rc>
    <rc><c>B </c><c>   1</c></rc>
    <rc><c>B </c><c>   1</c></rc>
    <rc><c>B </c><c>   1</c></rc>
    <rc><c>B </c><c>   1</c></rc>
    <rc><c>B </c><c>   1</c></rc>
    <rc><c>B </c><c>   1</c></rc>
    <rc><c>B </c><c>   1</c></rc>
    <rc><c>B </c><c>   1</c></rc>
    <rc><c>B </c><c>   1</c></rc>
    <rc><c>B </c><c>   1</c></rc>
    <rc><c>B </c><c>   1</c></rc>
    <rc><c>B </c><c>   1</c></rc>
    <rc><c>B </c><c>   1</c></rc>
    <rc><c>C </c><c>   2</c></rc>
    <rc><c>C </c><c>   2</c></rc>
    <rc><c>C </c><c>   2</c></rc>
    <rc><c>C </c><c>   2</c></rc>
    <rc><c>C </c><c>   2</c></rc>
    <rc><c>C </c><c>   2</c></rc>
    <rc><c>C </c><c>   2</c></rc>
    <rc><c>C </c><c>   2</c></rc>
    <rc><c>C </c><c>   2</c></rc>
    <rc><c>C </c><c>   2</c></rc>
    <rc><c>C </c><c>   2</c></rc>
    <rc><c>C </c><c>   2</c></rc>
    <rc><c>C </c><c>   2</c></rc>
    <rc><c>C </c><c>   2</c></rc>
    <rc><c>C </c><c>   2</c></rc>
    <rc><c>C </c><c>   2</c></rc>
    <rc><c>C </c><c>   2</c></rc>
    <rc><c>C </c><c>   2</c></rc>
    <rc><c>C </c><c>   2</c></rc>
    <rc><c>C </c><c>   2</c></rc>
    <rc><c>C </c><c>   2</c></rc>
    <rc><c>C </c><c>   2</c></rc>
    <rc><c>C </c><c>   2</c></rc>
    <rc><c>C </c><c>   2</c></rc>
    <rc><c>C </c><c>   2</c></rc>
    <rc><c>C </c><c>   2</c></rc>
    <rc><c>C </c><c>   2</c></rc>
    <rc><c>C </c><c>   2</c></rc>
    <rc><c>C </c><c>   2</c></rc>
    <rc><c>C </c><c>   2</c></rc>
    <rc><c>C </c><c>   2</c></rc>
    <rc><c>C </c><c>   2</c></rc>
    <rc><c>C </c><c>   2</c></rc>
    <rc><c>C </c><c>   2</c></rc>
    <rc><c>C </c><c>   2</c></rc>
    <rc><c>C </c><c>   2</c></rc>
    <rc><c>C </c><c>   2</c></rc>
    <rc><c>C </c><c>   2</c></rc>
    <rc><c>C </c><c>   2</c></rc>
    <rc><c>C </c><c>   2</c></rc>
    <rc><c>C </c><c>   2</c></rc>
    <rc><c>C </c><c>   2</c></rc>
    <rc><c>C </c><c>   2</c></rc>
    <rc><c>C </c><c>   2</c></rc>
    <rc><c>C </c><c>   2</c></rc>
    <rc><c>C </c><c>   2</c></rc>
    <rc><c>C </c><c>   2</c></rc>
    <rc><c>C </c><c>   2</c></rc>
    <rc><c>C </c><c>   2</c></rc>
    <rc><c>C </c><c>   2</c></rc>
    <rc><c>C </c><c>   2</c></rc>
    <rc><c>C </c><c>   2</c></rc>
    <rc><c>C </c><c>   2</c></rc>
    <rc><c>C </c><c>   2</c></rc>
   </set>
  </array>
  <array name="atomtypes" >
   <dimension dim="1">type</dimension>
   <field type="int">atomspertype</field>
   <field type="string">element</field>
   <field>mass</field>
   <field>valence</field>
   <field type="string">pseudopotential</field>
   <set>
    <rc><c>  18</c><c>B </c><c>     10.81100000</c><c>      3.00000000</c><c>  PAW_PBE B 06Sep2000                   </c></rc>
    <rc><c>  54</c><c>C </c><c>     12.01100000</c><c>      4.00000000</c><c>  PAW_PBE C 08Apr2002                   </c></rc>
   </set>
  </array>
 </atominfo>
 <structure name="initialpos" >
  <crystal>
   <varray name="basis" >
    <v>      13.44254530       7.76105656       0.00000000 </v>
    <v>     -13.44254530       7.76105656       0.00000000 </v>
    <v>       0.00000000       0.00000000       8.52022140 </v>
   </varray>
   <i name="volume">   1777.80135444 </i>
   <varray name="rec_basis" >
    <v>       0.03719534       0.06442422       0.00000000 </v>
    <v>      -0.03719534       0.06442422       0.00000000 </v>
    <v>       0.00000000       0.00000000       0.11736784 </v>
   </varray>
  </crystal>
  <varray name="positions" >
   <v>       0.11111100       0.22222200       0.25000000 </v>
   <v>       0.44444433       0.22222200       0.25000000 </v>
   <v>       0.77777767       0.22222200       0.25000000 </v>
   <v>       0.11111100       0.55555533       0.25000000 </v>
   <v>       0.44444433       0.55555533       0.25000000 </v>
   <v>       0.77777767       0.55555533       0.25000000 </v>
   <v>       0.11111100       0.88888867       0.25000000 </v>
   <v>       0.44444433       0.88888867       0.25000000 </v>
   <v>       0.77777767       0.88888867       0.25000000 </v>
   <v>       0.22222200       0.11111100       0.25000000 </v>
   <v>       0.55555533       0.11111100       0.25000000 </v>
   <v>       0.88888867       0.11111100       0.25000000 </v>
   <v>       0.22222200       0.44444433       0.25000000 </v>
   <v>       0.55555533       0.44444433       0.25000000 </v>
   <v>       0.88888867       0.44444433       0.25000000 </v>
   <v>       0.22222200       0.77777767       0.25000000 </v>
   <v>       0.55555533       0.77777767       0.25000000 </v>
   <v>       0.88888867       0.77777767       0.25000000 </v>
   <v>       0.05289708       0.10579449       0.25000000 </v>
   <v>       0.38623041       0.10579449       0.25000000 </v>
   <v>       0.71956375       0.10579449       0.25000000 </v>
   <v>       0.05289708       0.43912783       0.25000000 </v>
   <v>       0.38623041       0.43912783       0.25000000 </v>
   <v>       0.71956375       0.43912783       0.25000000 </v>
   <v>       0.05289708       0.77246116       0.25000000 </v>
   <v>       0.38623041       0.77246116       0.25000000 </v>
   <v>       0.71956375       0.77246116       0.25000000 </v>
   <v>       0.10579449       0.05289708       0.25000000 </v>
   <v>       0.43912783       0.05289708       0.25000000 </v>
   <v>       0.77246116       0.05289708       0.25000000 </v>
   <v>       0.10579449       0.38623041       0.25000000 </v>
   <v>       0.43912783       0.38623041       0.25000000 </v>
   <v>       0.77246116       0.38623041       0.25000000 </v>
   <v>       0.10579449       0.71956375       0.25000000 </v>
   <v>       0.43912783       0.71956375       0.25000000 </v>
   <v>       0.77246116       0.71956375       0.25000000 </v>
   <v>       0.05289708       0.28043592       0.25000000 </v>
   <v>       0.38623041       0.28043592       0.25000000 </v>
   <v>       0.71956375       0.28043592       0.25000000 </v>
   <v>       0.05289708       0.61376925       0.25000000 </v>
   <v>       0.38623041       0.61376925       0.25000000 </v>
   <v>       0.71956375       0.61376925       0.25000000 </v>
   <v>       0.05289708       0.94710259       0.25000000 </v>
   <v>       0.38623041       0.94710259       0.25000000 </v>
   <v>       0.71956375       0.94710259       0.25000000 </v>
   <v>       0.28043592       0.05289708       0.25000000 </v>
   <v>       0.61376925       0.05289708       0.25000000 </v>
   <v>       0.94710259       0.05289708       0.25000000 </v>
   <v>       0.28043592       0.38623041       0.25000000 </v>
   <v>       0.61376925       0.38623041       0.25000000 </v>
   <v>       0.94710259       0.38623041       0.25000000 </v>
   <v>       0.28043592       0.71956375       0.25000000 </v>
   <v>       0.61376925       0.71956375       0.25000000 </v>
   <v>       0.94710259       0.71956375       0.25000000 </v>
   <v>       0.22753851       0.28043592       0.25000000 </v>
   <v>       0.56087184       0.28043592       0.25000000 </v>
   <v>       0.89420517       0.28043592       0.25000000 </v>
   <v>       0.22753851       0.61376925       0.25000000 </v>
   <v>       0.56087184       0.61376925       0.25000000 </v>
   <v>       0.89420517       0.61376925       0.25000000 </v>
   <v>       0.22753851       0.94710259       0.25000000 </v>
   <v>       0.56087184       0.94710259       0.25000000 </v>
   <v>       0.89420517       0.94710259       0.25000000 </v>
   <v>       0.28043592       0.22753851       0.25000000 </v>
   <v>       0.61376925       0.22753851       0.25000000 </v>
   <v>       0.94710259       0.22753851       0.25000000 </v>
   <v>       0.28043592       0.56087184       0.25000000 </v>
   <v>       0.61376925       0.56087184       0.25000000 </v>
   <v>       0.94710259       0.56087184       0.25000000 </v>
   <v>       0.28043592       0.89420517       0.25000000 </v>
   <v>       0.61376925       0.89420517       0.25000000 </v>
   <v>       0.94710259       0.89420517       0.25000000 </v>
  </varray>
 </structure>
 <calculation>
  <scstep>
   <time name="dav">   23.51   23.51</time>
   <time name="total">   23.94   23.94</time>
   <energy>
    <i name="alphaZ">    231.11290580 </i>
    <i name="ewald">   6302.44197409 </i>
    <i name="hartreedc"> -13722.89562661 </i>
    <i name="XCdc">    820.28457657 </i>
    <i name="pawpsdc">   6643.18808362 </i>
    <i name="pawaedc">  -6658.54023824 </i>
    <i name="eentropy">     -0.07502395 </i>
    <i name="bandstr">   -995.49980013 </i>
    <i name="atom">   9226.83509577 </i>
    <i name="e_fr_energy">   1846.85194692 </i>
    <i name="e_wo_entrp">   1846.92697088 </i>
    <i name="e_0_energy">   1846.88945890 </i>
   </energy>
  </scstep>
  <scstep>
   <time name="dav">   30.97   30.97</time>
   <time name="total">   30.97   30.97</time>
   <energy>
    <i name="e_fr_energy">   -363.21293274 </i>
    <i name="e_wo_entrp">   -363.21293274 </i>
    <i name="e_0_energy">   -363.21293274 </i>
   </energy>
  </scstep>
  <scstep>
   <time name="dav">   26.06   26.06</time>
   <time name="total">   26.06   26.06</time>
   <energy>
    <i name="e_fr_energy">   -650.30765269 </i>
    <i name="e_wo_entrp">   -650.30765269 </i>
    <i name="e_0_energy">   -650.30765269 </i>
   </energy>
  </scstep>
  <scstep>
   <time name="dav">   27.78   27.79</time>
   <time name="total">   27.79   27.79</time>
   <energy>
    <i name="e_fr_energy">   -660.57620311 </i>
    <i name="e_wo_entrp">   -660.57620311 </i>
    <i name="e_0_energy">   -660.57620311 </i>
   </energy>
  </scstep>
  <scstep>
   <time name="dav">   29.08   29.09</time>
   <time name="total">   30.30   30.30</time>
   <energy>
    <i name="e_fr_energy">   -660.95284404 </i>
    <i name="e_wo_entrp">   -660.95284404 </i>
    <i name="e_0_energy">   -660.95284404 </i>
   </energy>
  </scstep>
  <scstep>
   <time name="dav">   25.23   25.23</time>
   <time name="total">   26.87   26.87</time>
   <energy>
    <i name="e_fr_energy">   -620.82310332 </i>
    <i name="e_wo_entrp">   -620.82310332 </i>
    <i name="e_0_energy">   -620.82310332 </i>
   </energy>
  </scstep>
  <scstep>
   <time name="dav">   24.67   24.67</time>
   <time name="total">   26.30   26.30</time>
   <energy>
    <i name="e_fr_energy">   -606.03316030 </i>
    <i name="e_wo_entrp">   -606.03316030 </i>
    <i name="e_0_energy">   -606.03316030 </i>
   </energy>
  </scstep>
  <scstep>
   <time name="dav">   26.09   26.09</time>
   <time name="total">   27.73   27.73</time>
   <energy>
    <i name="e_fr_energy">   -605.21637467 </i>
    <i name="e_wo_entrp">   -605.21637459 </i>
    <i name="e_0_energy">   -605.21637463 </i>
   </energy>
  </scstep>
  <scstep>
   <time name="dav">   25.08   25.08</time>
   <time name="total">   26.72   26.72</time>
   <energy>
    <i name="e_fr_energy">   -605.02107142 </i>
    <i name="e_wo_entrp">   -605.02107128 </i>
    <i name="e_0_energy">   -605.02107135 </i>
   </energy>
  </scstep>
  <scstep>
   <time name="dav">   25.82   25.82</time>
   <time name="total">   27.46   27.46</time>
   <energy>
    <i name="e_fr_energy">   -604.96455891 </i>
    <i name="e_wo_entrp">   -604.96455859 </i>
    <i name="e_0_energy">   -604.96455875 </i>
   </energy>
  </scstep>
  <scstep>
   <time name="dav">   24.36   24.36</time>
   <time name="total">   26.00   26.00</time>
   <energy>
    <i name="e_fr_energy">   -605.00850079 </i>
    <i name="e_wo_entrp">   -605.00850024 </i>
    <i name="e_0_energy">   -605.00850052 </i>
   </energy>
  </scstep>
  <scstep>
   <time name="dav">   24.65   24.65</time>
   <time name="total">   26.29   26.29</time>
   <energy>
    <i name="e_fr_energy">   -605.03548795 </i>
    <i name="e_wo_entrp">   -605.03548731 </i>
    <i name="e_0_energy">   -605.03548763 </i>
   </energy>
  </scstep>
  <scstep>
   <time name="dav">   25.37   25.37</time>
   <time name="total">   27.01   27.01</time>
   <energy>
    <i name="e_fr_energy">   -605.04904650 </i>
    <i name="e_wo_entrp">   -605.04904590 </i>
    <i name="e_0_energy">   -605.04904620 </i>
   </energy>
  </scstep>
  <scstep>
   <time name="dav">   24.36   24.36</time>
   <time name="total">   25.99   25.99</time>
   <energy>
    <i name="e_fr_energy">   -605.05045109 </i>
    <i name="e_wo_entrp">   -605.05045050 </i>
    <i name="e_0_energy">   -605.05045080 </i>
   </energy>
  </scstep>
  <scstep>
   <time name="dav">   25.10   25.10</time>
   <time name="total">   26.74   26.74</time>
   <energy>
    <i name="e_fr_energy">   -605.05063724 </i>
    <i name="e_wo_entrp">   -605.05063665 </i>
    <i name="e_0_energy">   -605.05063695 </i>
   </energy>
  </scstep>
  <scstep>
   <time name="dav">   19.79   19.79</time>
   <time name="total">   21.43   21.43</time>
   <energy>
    <i name="e_fr_energy">   -605.05067051 </i>
    <i name="e_wo_entrp">   -605.05066992 </i>
    <i name="e_0_energy">   -605.05067022 </i>
   </energy>
  </scstep>
  <scstep>
   <time name="dav">   17.50   17.50</time>
   <time name="total">   19.14   19.14</time>
   <energy>
    <i name="e_fr_energy">   -605.05067541 </i>
    <i name="e_wo_entrp">   -605.05067482 </i>
    <i name="e_0_energy">   -605.05067512 </i>
   </energy>
  </scstep>
  <scstep>
   <time name="dav">   17.94   17.94</time>
   <time name="total">   18.36   18.36</time>
   <energy>
    <i name="alphaZ">    231.11290580 </i>
    <i name="ewald">   6302.44197409 </i>
    <i name="hartreedc"> -14820.77769377 </i>
    <i name="XCdc">    864.21838995 </i>
    <i name="pawpsdc">  26049.41376829 </i>
    <i name="pawaedc"> -26072.15867814 </i>
    <i name="eentropy">     -0.00000059 </i>
    <i name="bandstr">  -2386.13643711 </i>
    <i name="atom">   9226.83509577 </i>
    <i name="e_fr_energy">   -605.05067571 </i>
    <i name="e_wo_entrp">   -605.05067512 </i>
    <i name="e_0_energy">   -605.05067541 </i>
   </energy>
  </scstep>
  <structure>
   <crystal>
    <varray name="basis" >
     <v>      13.44254530       7.76105656       0.00000000 </v>
     <v>     -13.44254530       7.76105656       0.00000000 </v>
     <v>       0.00000000       0.00000000       8.52022140 </v>
    </varray>
    <i name="volume">   1777.80135444 </i>
    <varray name="rec_basis" >
     <v>       0.03719534       0.06442422       0.00000000 </v>
     <v>      -0.03719534       0.06442422       0.00000000 </v>
     <v>       0.00000000       0.00000000       0.11736784 </v>
    </varray>
   </crystal>
   <varray name="positions" >
    <v>       0.11111100       0.22222200       0.25000000 </v>
    <v>       0.44444433       0.22222200       0.25000000 </v>
    <v>       0.77777767       0.22222200       0.25000000 </v>
    <v>       0.11111100       0.55555533       0.25000000 </v>
    <v>       0.44444433       0.55555533       0.25000000 </v>
    <v>       0.77777767       0.55555533       0.25000000 </v>
    <v>       0.11111100       0.88888867       0.25000000 </v>
    <v>       0.44444433       0.88888867       0.25000000 </v>
    <v>       0.77777767       0.88888867       0.25000000 </v>
    <v>       0.22222200       0.11111100       0.25000000 </v>
    <v>       0.55555533       0.11111100       0.25000000 </v>
    <v>       0.88888867       0.11111100       0.25000000 </v>
    <v>       0.22222200       0.44444433       0.25000000 </v>
    <v>       0.55555533       0.44444433       0.25000000 </v>
    <v>       0.88888867       0.44444433       0.25000000 </v>
    <v>       0.22222200       0.77777767       0.25000000 </v>
    <v>       0.55555533       0.77777767       0.25000000 </v>
    <v>       0.88888867       0.77777767       0.25000000 </v>
    <v>       0.05289708       0.10579449       0.25000000 </v>
    <v>       0.38623041       0.10579449       0.25000000 </v>
    <v>       0.71956375       0.10579449       0.25000000 </v>
    <v>       0.05289708       0.43912783       0.25000000 </v>
    <v>       0.38623041       0.43912783       0.25000000 </v>
    <v>       0.71956375       0.43912783       0.25000000 </v>
    <v>       0.05289708       0.77246116       0.25000000 </v>
    <v>       0.38623041       0.77246116       0.25000000 </v>
    <v>       0.71956375       0.77246116       0.25000000 </v>
    <v>       0.10579449       0.05289708       0.25000000 </v>
    <v>       0.43912783       0.05289708       0.25000000 </v>
    <v>       0.77246116       0.05289708       0.25000000 </v>
    <v>       0.10579449       0.38623041       0.25000000 </v>
    <v>       0.43912783       0.38623041       0.25000000 </v>
    <v>       0.77246116       0.38623041       0.25000000 </v>
    <v>       0.10579449       0.71956375       0.25000000 </v>
    <v>       0.43912783       0.71956375       0.25000000 </v>
    <v>       0.77246116       0.71956375       0.25000000 </v>
    <v>       0.05289708       0.28043592       0.25000000 </v>
    <v>       0.38623041       0.28043592       0.25000000 </v>
    <v>       0.71956375       0.28043592       0.25000000 </v>
    <v>       0.05289708       0.61376925       0.25000000 </v>
    <v>       0.38623041       0.61376925       0.25000000 </v>
    <v>       0.71956375       0.61376925       0.25000000 </v>
    <v>       0.05289708       0.94710259       0.25000000 </v>
    <v>       0.38623041       0.94710259       0.25000000 </v>
    <v>       0.71956375       0.94710259       0.25000000 </v>
    <v>       0.28043592       0.05289708       0.25000000 </v>
    <v>       0.61376925       0.05289708       0.25000000 </v>
    <v>       0.94710259       0.05289708       0.25000000 </v>
    <v>       0.28043592       0.38623041       0.25000000 </v>
    <v>       0.61376925       0.38623041       0.25000000 </v>
    <v>       0.94710259       0.38623041       0.25000000 </v>
    <v>       0.28043592       0.71956375       0.25000000 </v>
    <v>       0.61376925       0.71956375       0.25000000 </v>
    <v>       0.94710259       0.71956375       0.25000000 </v>
    <v>       0.22753851       0.28043592       0.25000000 </v>
    <v>       0.56087184       0.28043592       0.25000000 </v>
    <v>       0.89420517       0.28043592       0.25000000 </v>
    <v>       0.22753851       0.61376925       0.25000000 </v>
    <v>       0.56087184       0.61376925       0.25000000 </v>
    <v>       0.89420517       0.61376925       0.25000000 </v>
    <v>       0.22753851       0.94710259       0.25000000 </v>
    <v>       0.56087184       0.94710259       0.25000000 </v>
    <v>       0.89420517       0.94710259       0.25000000 </v>
    <v>       0.28043592       0.22753851       0.25000000 </v>
    <v>       0.61376925       0.22753851       0.25000000 </v>
    <v>       0.94710259       0.22753851       0.25000000 </v>
    <v>       0.28043592       0.56087184       0.25000000 </v>
    <v>       0.61376925       0.56087184       0.25000000 </v>
    <v>       0.94710259       0.56087184       0.25000000 </v>
    <v>       0.28043592       0.89420517       0.25000000 </v>
    <v>       0.61376925       0.89420517       0.25000000 </v>
    <v>       0.94710259       0.89420517       0.25000000 </v>
   </varray>
  </structure>
  <varray name="forces" >
   <v>       0.00000000      -0.00000000       0.00000000 </v>
   <v>       0.00000000      -0.00000000       0.00000000 </v>
   <v>       0.00000000      -0.00000000       0.00000000 </v>
   <v>       0.00000000      -0.00000000       0.00000000 </v>
   <v>       0.00000000      -0.00000000       0.00000000 </v>
   <v>       0.00000000      -0.00000000       0.00000000 </v>
   <v>       0.00000000      -0.00000000       0.00000000 </v>
   <v>       0.00000000      -0.00000000       0.00000000 </v>
   <v>       0.00000000      -0.00000000       0.00000000 </v>
   <v>       0.00000000      -0.00000000       0.00000000 </v>
   <v>       0.00000000      -0.00000000       0.00000000 </v>
   <v>       0.00000000      -0.00000000       0.00000000 </v>
   <v>       0.00000000      -0.00000000       0.00000000 </v>
   <v>       0.00000000      -0.00000000       0.00000000 </v>
   <v>       0.00000000      -0.00000000       0.00000000 </v>
   <v>       0.00000000      -0.00000000       0.00000000 </v>
   <v>       0.00000000      -0.00000000       0.00000000 </v>
   <v>       0.00000000      -0.00000000       0.00000000 </v>
   <v>      -0.00065163       0.00112865      -0.00000000 </v>
   <v>      -0.00065163       0.00112865       0.00000000 </v>
   <v>      -0.00065163       0.00112865      -0.00000000 </v>
   <v>      -0.00065163       0.00112865       0.00000000 </v>
   <v>      -0.00065163       0.00112865      -0.00000000 </v>
   <v>      -0.00065163       0.00112865       0.00000000 </v>
   <v>      -0.00065163       0.00112865      -0.00000000 </v>
   <v>      -0.00065163       0.00112865      -0.00000000 </v>
   <v>      -0.00065163       0.00112865       0.00000000 </v>
   <v>       0.00065163       0.00112865      -0.00000000 </v>
   <v>       0.00065163       0.00112865      -0.00000000 </v>
   <v>       0.00065163       0.00112865       0.00000000 </v>
   <v>       0.00065163       0.00112865      -0.00000000 </v>
   <v>       0.00065163       0.00112865      -0.00000000 </v>
   <v>       0.00065163       0.00112865       0.00000000 </v>
   <v>       0.00065163       0.00112865      -0.00000000 </v>
   <v>       0.00065163       0.00112865      -0.00000000 </v>
   <v>       0.00065163       0.00112865       0.00000000 </v>
   <v>       0.00130325      -0.00000000      -0.00000000 </v>
   <v>       0.00130325      -0.00000000       0.00000000 </v>
   <v>       0.00130325      -0.00000000      -0.00000000 </v>
   <v>       0.00130325      -0.00000000       0.00000000 </v>
   <v>       0.00130325      -0.00000000       0.00000000 </v>
   <v>       0.00130325      -0.00000000      -0.00000000 </v>
   <v>       0.00130325      -0.00000000      -0.00000000 </v>
   <v>       0.00130325      -0.00000000       0.00000000 </v>
   <v>       0.00130325      -0.00000000       0.00000000 </v>
   <v>      -0.00130325      -0.00000000       0.00000000 </v>
   <v>      -0.00130325      -0.00000000      -0.00000000 </v>
   <v>      -0.00130325      -0.00000000      -0.00000000 </v>
   <v>      -0.00130325      -0.00000000       0.00000000 </v>
   <v>      -0.00130325      -0.00000000       0.00000000 </v>
   <v>      -0.00130325      -0.00000000      -0.00000000 </v>
   <v>      -0.00130325      -0.00000000      -0.00000000 </v>
   <v>      -0.00130325      -0.00000000       0.00000000 </v>
   <v>      -0.00130325      -0.00000000       0.00000000 </v>
   <v>      -0.00065163      -0.00112865       0.00000000 </v>
   <v>      -0.00065163      -0.00112865      -0.00000000 </v>
   <v>      -0.00065163      -0.00112865       0.00000000 </v>
   <v>      -0.00065163      -0.00112865       0.00000000 </v>
   <v>      -0.00065163      -0.00112865      -0.00000000 </v>
   <v>      -0.00065163      -0.00112865       0.00000000 </v>
   <v>      -0.00065163      -0.00112865      -0.00000000 </v>
   <v>      -0.00065163      -0.00112865      -0.00000000 </v>
   <v>      -0.00065163      -0.00112865      -0.00000000 </v>
   <v>       0.00065163      -0.00112865       0.00000000 </v>
   <v>       0.00065163      -0.00112865       0.00000000 </v>
   <v>       0.00065163      -0.00112865      -0.00000000 </v>
   <v>       0.00065163      -0.00112865       0.00000000 </v>
   <v>       0.00065163      -0.00112865      -0.00000000 </v>
   <v>       0.00065163      -0.00112865      -0.00000000 </v>
   <v>       0.00065163      -0.00112865      -0.00000000 </v>
   <v>       0.00065163      -0.00112865      -0.00000000 </v>
   <v>       0.00065163      -0.00112865       0.00000000 </v>
  </varray>
  <varray name="stress" >
   <v>      -0.54370936       0.00000000      -0.00000000 </v>
   <v>       0.00000000      -0.54370928      -0.00000000 </v>
   <v>       0.00000000       0.00000000      -1.28481052 </v>
  </varray>
  <energy>
   <i name="e_fr_energy">   -605.05067571 </i>
   <i name="e_wo_entrp">   -605.05067541 </i>
   <i name="e_0_energy">     -0.00000059 </i>
  </energy>
  <kpoints>
   <generation param="Gamma">
    <v type="int" name="divisions">       4        4        1 </v>
    <v name="usershift">      0.00000000       0.00000000       0.00000000 </v>
    <v name="genvec1">      0.25000000       0.00000000       0.00000000 </v>
    <v name="genvec2">      0.00000000       0.25000000       0.00000000 </v>
    <v name="genvec3">      0.00000000       0.00000000       1.00000000 </v>
    <v name="shift">      0.00000000       0.00000000       0.00000000 </v>
   </generation>
   <varray name="kpointlist" >
    <v>       0.00000000       0.00000000       0.00000000 </v>
    <v>       0.25000000      -0.00000000       0.00000000 </v>
    <v>       0.50000000      -0.00000000       0.00000000 </v>
    <v>       0.25000000       0.25000000       0.00000000 </v>
    <v>       0.50000000       0.25000000       0.00000000 </v>
    <v>      -0.25000000       0.25000000       0.00000000 </v>
    <v>       0.50000000       0.50000000       0.00000000 </v>
   </varray>
   <varray name="weights" >
    <v>       0.06250000 </v>
    <v>       0.25000000 </v>
    <v>       0.12500000 </v>
    <v>       0.12500000 </v>
    <v>       0.25000000 </v>
    <v>       0.12500000 </v>
    <v>       0.06250000 </v>
   </varray>
  </kpoints>
  <scstep>
   <time name="total">   84.48   84.48</time>
   <energy>
    <i name="e_fr_energy">   -162.56710554 </i>
    <i name="e_wo_entrp">   -162.56710552 </i>
    <i name="e_0_energy">   -162.56710553 </i>
   </energy>
  </scstep>
  <scstep>
   <time name="total">   57.20   57.20</time>
   <energy>
    <i name="e_fr_energy">   -121.99537393 </i>
    <i name="e_wo_entrp">   -121.99537391 </i>
    <i name="e_0_energy">   -121.99537392 </i>
   </energy>
  </scstep>
  <scstep>
   <time name="total">   53.94   53.94</time>
   <energy>
    <i name="e_fr_energy">   -119.61341351 </i>
    <i name="e_wo_entrp">   -119.61341349 </i>
    <i name="e_0_energy">   -119.61341350 </i>
   </energy>
  </scstep>
  <scstep>
   <time name="total">   55.44   55.45</time>
   <energy>
    <i name="e_fr_energy">   -119.42159312 </i>
    <i name="e_wo_entrp">   -119.42159310 </i>
    <i name="e_0_energy">   -119.42159311 </i>
   </energy>
  </scstep>
  <scstep>
   <time name="total">   54.51   54.51</time>
   <energy>
    <i name="e_fr_energy">   -119.34450970 </i>
    <i name="e_wo_entrp">   -119.34450968 </i>
    <i name="e_0_energy">   -119.34450969 </i>
   </energy>
  </scstep>
  <scstep>
   <time name="total">   58.59   58.59</time>
   <energy>
    <i name="e_fr_energy">   -119.34120282 </i>
    <i name="e_wo_entrp">   -119.34120280 </i>
    <i name="e_0_energy">   -119.34120281 </i>
   </energy>
  </scstep>
  <scstep>
   <time name="total">   56.04   56.04</time>
   <energy>
    <i name="e_fr_energy">   -119.34343963 </i>
    <i name="e_wo_entrp">   -119.34343961 </i>
    <i name="e_0_energy">   -119.34343962 </i>
   </energy>
  </scstep>
  <kpoints>
   <generation param="Gamma">
    <v type="int" name="divisions">       4        4        1 </v>
    <v name="usershift">      0.00000000       0.00000000       0.00000000 </v>
    <v name="genvec1">      0.25000000       0.00000000       0.00000000 </v>
    <v name="genvec2">      0.00000000       0.25000000       0.00000000 </v>
    <v name="genvec3">      0.00000000       0.00000000       1.00000000 </v>
    <v name="shift">      0.00000000       0.00000000       0.00000000 </v>
   </generation>
   <varray name="kpointlist" >
    <v>       0.00000000       0.00000000       0.00000000 </v>
    <v>       0.25000000      -0.00000000       0.00000000 </v>
    <v>       0.50000000      -0.00000000       0.00000000 </v>
    <v>       0.25000000       0.25000000       0.00000000 </v>
   </varray>
   <varray name="weights" >
    <v>       0.06250000 </v>
    <v>       0.37500000 </v>
    <v>       0.18750000 </v>
    <v>       0.37500000 </v>
   </varray>
  </kpoints>
  <scstep>
   <time name="total">   38.36   38.36</time>
   <energy>
    <i name="e_fr_energy">    -84.19522371 </i>
    <i name="e_wo_entrp">    -84.19522371 </i>
    <i name="e_0_energy">    -84.19522371 </i>
   </energy>
  </scstep>
  <scstep>
   <time name="total">   33.72   33.72</time>
   <energy>
    <i name="e_fr_energy">    -81.96290149 </i>
    <i name="e_wo_entrp">    -81.96290149 </i>
    <i name="e_0_energy">    -81.96290149 </i>
   </energy>
  </scstep>
  <scstep>
   <time name="total">   31.40   31.40</time>
   <energy>
    <i name="e_fr_energy">    -81.24024063 </i>
    <i name="e_wo_entrp">    -81.24024063 </i>
    <i name="e_0_energy">    -81.24024063 </i>
   </energy>
  </scstep>
  <scstep>
   <time name="total">   32.02   32.02</time>
   <energy>
    <i name="e_fr_energy">    -80.98717797 </i>
    <i name="e_wo_entrp">    -80.98717797 </i>
    <i name="e_0_energy">    -80.98717797 </i>
   </energy>
  </scstep>
  <scstep>
   <time name="total">   33.46   33.46</time>
   <energy>
    <i name="e_fr_energy">    -80.90431901 </i>
    <i name="e_wo_entrp">    -80.90431901 </i>
    <i name="e_0_energy">    -80.90431901 </i>
   </energy>
  </scstep>
  <scstep>
   <time name="total">   34.14   34.14</time>
   <energy>
    <i name="e_fr_energy">    -80.90591177 </i>
    <i name="e_wo_entrp">    -80.90591177 </i>
    <i name="e_0_energy">    -80.90591177 </i>
   </energy>
  </scstep>
  <kpoints>
   <generation param="Gamma">
    <v type="int" name="divisions">       4        4        1 </v>
    <v name="usershift">      0.00000000       0.00000000       0.00000000 </v>
    <v name="genvec1">      0.25000000       0.00000000       0.00000000 </v>
    <v name="genvec2">      0.00000000       0.25000000       0.00000000 </v>
    <v name="genvec3">      0.00000000       0.00000000       1.00000000 </v>
    <v name="shift">      0.00000000       0.00000000       0.00000000 </v>
   </generation>
   <varray name="kpointlist" >
    <v>       0.00000000       0.00000000       0.00000000 </v>
    <v>       0.25000000      -0.00000000       0.00000000 </v>
    <v>       0.50000000      -0.00000000       0.00000000 </v>
    <v>      -0.00000000       0.25000000       0.00000000 </v>
    <v>       0.25000000       0.25000000       0.00000000 </v>
    <v>       0.50000000       0.25000000       0.00000000 </v>
    <v>      -0.25000000       0.25000000       0.00000000 </v>
    <v>      -0.00000000       0.50000000       0.00000000 </v>
    <v>       0.25000000       0.50000000       0.00000000 </v>
    <v>       0.50000000       0.50000000       0.00000000 </v>
   </varray>
   <varray name="weights" >
    <v>       0.06250000 </v>
    <v>       0.12500000 </v>
    <v>       0.06250000 </v>
    <v>       0.12500000 </v>
    <v>       0.12500000 </v>
    <v>       0.12500000 </v>
    <v>       0.12500000 </v>
    <v>       0.06250000 </v>
    <v>       0.12500000 </v>
    <v>       0.06250000 </v>
   </varray>
  </kpoints>
  <scstep>
   <time name="total">  113.40  113.40</time>
   <energy>
    <i name="e_fr_energy">   -373.13373368 </i>
    <i name="e_wo_entrp">   -373.13373496 </i>
    <i name="e_0_energy">   -373.13373432 </i>
   </energy>
  </scstep>
  <scstep>
   <time name="total">   80.59   80.59</time>
   <energy>
    <i name="e_fr_energy">   -321.04933927 </i>
    <i name="e_wo_entrp">   -321.04934050 </i>
    <i name="e_0_energy">   -321.04933988 </i>
   </energy>
  </scstep>
  <scstep>
   <time name="total">   76.95   76.95</time>
   <energy>
    <i name="e_fr_energy">   -316.28149981 </i>
    <i name="e_wo_entrp">   -316.28150058 </i>
    <i name="e_0_energy">   -316.28150020 </i>
   </energy>
  </scstep>
  <scstep>
   <time name="total">   77.46   77.46</time>
   <energy>
    <i name="e_fr_energy">   -315.62575197 </i>
    <i name="e_wo_entrp">   -315.62575265 </i>
    <i name="e_0_energy">   -315.62575231 </i>
   </energy>
  </scstep>
  <scstep>
   <time name="total">   76.08   76.08</time>
   <energy>
    <i name="e_fr_energy">   -315.45585598 </i>
    <i name="e_wo_entrp">   -315.45585667 </i>
    <i name="e_0_energy">   -315.45585632 </i>
   </energy>
  </scstep>
  <scstep>
   <time name="total">   79.93   79.93</time>
   <energy>
    <i name="e_fr_energy">   -315.44996743 </i>
    <i name="e_wo_entrp">   -315.44996813 </i>
    <i name="e_0_energy">   -315.44996778 </i>
   </energy>
  </scstep>
  <scstep>
   <time name="total">   80.29   80.29</time>
   <energy>
    <i name="e_fr_energy">   -315.45242308 </i>
    <i name="e_wo_entrp">   -315.45242378 </i>
    <i name="e_0_energy">   -315.45242343 </i>
   </energy>
  </scstep>
  <kpoints>
   <generation param="Gamma">
    <v type="int" name="divisions">       4        4        1 </v>
    <v name="usershift">      0.00000000       0.00000000       0.00000000 </v>
    <v name="genvec1">      0.25000000       0.00000000       0.00000000 </v>
    <v name="genvec2">      0.00000000       0.25000000       0.00000000 </v>
    <v name="genvec3">      0.00000000       0.00000000       1.00000000 </v>
    <v name="shift">      0.00000000       0.00000000       0.00000000 </v>
   </generation>
   <varray name="kpointlist" >
    <v>       0.00000000       0.00000000       0.00000000 </v>
    <v>       0.25000000      -0.00000000       0.00000000 </v>
    <v>       0.50000000      -0.00000000       0.00000000 </v>
    <v>      -0.00000000       0.25000000       0.00000000 </v>
    <v>       0.25000000       0.25000000       0.00000000 </v>
    <v>       0.50000000       0.25000000       0.00000000 </v>
    <v>      -0.00000000       0.50000000       0.00000000 </v>
   </varray>
   <varray name="weights" >
    <v>       0.06250000 </v>
    <v>       0.25000000 </v>
    <v>       0.12500000 </v>
    <v>       0.12500000 </v>
    <v>       0.25000000 </v>
    <v>       0.12500000 </v>
    <v>       0.06250000 </v>
   </varray>
  </kpoints>
  <scstep>
   <time name="total">   62.02   62.02</time>
   <energy>
    <i name="e_fr_energy">   -279.01661145 </i>
    <i name="e_wo_entrp">   -279.01661145 </i>
    <i name="e_0_energy">   -279.01661145 </i>
   </energy>
  </scstep>
  <scstep>
   <time name="total">   56.92   56.92</time>
   <energy>
    <i name="e_fr_energy">   -276.71249791 </i>
    <i name="e_wo_entrp">   -276.71249791 </i>
    <i name="e_0_energy">   -276.71249791 </i>
   </energy>
  </scstep>
  <scstep>
   <time name="total">   48.28   48.28</time>
   <energy>
    <i name="e_fr_energy">   -274.01868187 </i>
    <i name="e_wo_entrp">   -274.01868187 </i>
    <i name="e_0_energy">   -274.01868187 </i>
   </energy>
  </scstep>
  <scstep>
   <time name="total">   51.67   51.67</time>
   <energy>
    <i name="e_fr_energy">   -273.13657185 </i>
    <i name="e_wo_entrp">   -273.13657185 </i>
    <i name="e_0_energy">   -273.13657185 </i>
   </energy>
  </scstep>
  <scstep>
   <time name="total">   53.59   53.59</time>
   <energy>
    <i name="e_fr_energy">   -273.08902590 </i>
    <i name="e_wo_entrp">   -273.08902590 </i>
    <i name="e_0_energy">   -273.08902590 </i>
   </energy>
  </scstep>
  <scstep>
   <time name="total">   58.35   58.35</time>
   <energy>
    <i name="e_fr_energy">   -273.07744498 </i>
    <i name="e_wo_entrp">   -273.07744498 </i>
    <i name="e_0_energy">   -273.07744498 </i>
   </energy>
  </scstep>
  <scstep>
   <time name="total">   54.26   54.26</time>
   <energy>
    <i name="e_fr_energy">   -273.08068943 </i>
    <i name="e_wo_entrp">   -273.08068943 </i>
    <i name="e_0_energy">   -273.08068943 </i>
   </energy>
  </scstep>
  <scstep>
   <time name="total">   58.40   58.40</time>
   <energy>
    <i name="e_fr_energy">   -273.08116809 </i>
    <i name="e_wo_entrp">   -273.08116809 </i>
    <i name="e_0_energy">   -273.08116809 </i>
   </energy>
  </scstep>
  <kpoints>
   <generation param="Gamma">
    <v type="int" name="divisions">       4        4        1 </v>
    <v name="usershift">      0.00000000       0.00000000       0.00000000 </v>
    <v name="genvec1">      0.25000000       0.00000000       0.00000000 </v>
    <v name="genvec2">      0.00000000       0.25000000       0.00000000 </v>
    <v name="genvec3">      0.00000000       0.00000000       1.00000000 </v>
    <v name="shift">      0.00000000       0.00000000       0.00000000 </v>
   </generation>
   <varray name="kpointlist" >
    <v>       0.00000000       0.00000000       0.00000000 </v>
    <v>       0.25000000      -0.00000000       0.00000000 </v>
    <v>       0.50000000      -0.00000000       0.00000000 </v>
    <v>       0.25000000       0.25000000       0.00000000 </v>
   </varray>
   <varray name="weights" >
    <v>       0.06250000 </v>
    <v>       0.37500000 </v>
    <v>       0.18750000 </v>
    <v>       0.37500000 </v>
   </varray>
  </kpoints>
  <dynmat>
   <varray name="hessian" >
    <v>      -3.73600739      -0.00000000       0.00000000       0.01802584       0.01932164       0.00000000       0.01802584       0.02905160      -0.00000000       0.01802584      -0.02905160       0.00000000      -0.02386661       0.00486498      -0.00000000       0.01310427      -0.00000000       0.00000000       0.01802584      -0.01932164       0.00000000       0.01310427       0.00000000      -0.00000000      -0.02386661      -0.00486498      -0.00000000       0.05964514      -0.00000000       0.00000000       0.00526518       0.00972144      -0.00000000      -0.05984031       0.06898495       0.00000000      -0.05984031      -0.06898495       0.00000000       0.02686333       0.02574631      -0.00000000       0.07145725       0.00000000       0.00000000       0.00526518      -0.00972144       0.00000000      -0.01157285       0.00000000       0.00000000       0.02686333      -0.02574631      -0.00000000       0.83033614      -0.43045713      -0.00000000       0.00085315       0.00429618       0.00000000       0.00313099      -0.00643138      -0.00000000      -0.03216302      -0.00714065       0.00000000       0.00690198      -0.04575245      -0.00000000       0.00749461       0.00551384      -0.00000000      -0.01368849       0.00684031      -0.00000000       0.00514083       0.00690556      -0.00000000      -0.00007288       0.00203327      -0.00000000       0.11592735      -0.20435140       0.00000000      -0.00484565      -0.00272302       0.00000000       0.00184788      -0.01145388      -0.00000000       0.14143095      -0.03782956       0.00000000      -0.00848159      -0.02899456       0.00000000      -0.01801643      -0.01034283       0.00000000       0.00926058      -0.00546813      -0.00000000      -0.00363532       0.00838635       0.00000000       0.00346741       0.00219310       0.00000000       1.57590982      -0.00000000       0.00000000       0.03317624      -0.01452539      -0.00000000      -0.01456544      -0.00938795       0.00000000      -0.01456544       0.00938795      -0.00000000       0.00384121      -0.00339112       0.00000000      -0.00205564      -0.00000000      -0.00000000       0.03317624       0.01452539       0.00000000      -0.00681994      -0.00000000       0.00000000       0.00384121       0.00339112      -0.00000000      -0.01799082      -0.00000000      -0.00000000       0.00066411       0.00450651       0.00000000      -0.08105573       0.06117415       0.00000000      -0.08105573      -0.06117415      -0.00000000      -0.01433239      -0.01233758      -0.00000000      -0.05870164      -0.00000000       0.00000000       0.00066411      -0.00450651      -0.00000000      -0.00021050       0.00000000      -0.00000000      -0.01433239       0.01233758       0.00000000       0.83033614       0.43045713       0.00000000      -0.01368849      -0.00684031       0.00000000      -0.03216302       0.00714065      -0.00000000       0.00313099       0.00643138       0.00000000      -0.00007288      -0.00203327       0.00000000       0.00749461      -0.00551384       0.00000000       0.00085315      -0.00429618      -0.00000000       0.00514083      -0.00690556       0.00000000       0.00690198       0.04575245       0.00000000       0.11592735       0.20435140      -0.00000000       0.00926058       0.00546813       0.00000000       0.14143095       0.03782956      -0.00000000       0.00184788       0.01145388       0.00000000       0.00346741      -0.00219310      -0.00000000      -0.01801643       0.01034283      -0.00000000      -0.00484565       0.00272302      -0.00000000      -0.00363532      -0.00838635      -0.00000000      -0.00848159       0.02899456      -0.00000000 </v>
    <v>      -0.00000000      -3.73600682       0.00000000       0.02905160      -0.00990246      -0.00000000       0.01932164      -0.00990246       0.00000000      -0.01932164      -0.00990246       0.00000000      -0.00486498       0.03198999      -0.00000000       0.00000000       0.01310426       0.00000000      -0.02905160      -0.00990246       0.00000000      -0.00000000       0.01310426      -0.00000000       0.00486498       0.03198999      -0.00000000      -0.00000000      -0.09966878       0.00000000       0.00972144      -0.00596017       0.00000000       0.06898495       0.01981665       0.00000000      -0.06898495       0.01981665       0.00000000       0.02574631       0.05659260       0.00000000       0.00000000       0.01199868       0.00000000      -0.00972144      -0.00596017       0.00000000       0.00000000       0.01087786       0.00000000      -0.02574631       0.05659260       0.00000000      -0.43045713       1.32738506       0.00000000      -0.00511628       0.00436375      -0.00000000       0.00298107       0.00208592      -0.00000000      -0.02319825       0.03743982       0.00000000      -0.02969484      -0.00162518       0.00000000       0.00551384       0.00112777       0.00000000       0.00989425      -0.00519605      -0.00000000       0.00690556      -0.00283302       0.00000000      -0.00102066      -0.01881166      -0.00000000      -0.05255407       0.00160770      -0.00000000       0.00768757      -0.00036559      -0.00000000      -0.01145388      -0.01137792       0.00000000      -0.18962689      -0.02389590       0.00000000      -0.02899456      -0.04196161       0.00000000      -0.01021060      -0.00123785      -0.00000000      -0.00546813       0.00294652      -0.00000000      -0.00202423      -0.00157592       0.00000000       0.00206086      -0.02272168      -0.00000000      -0.00000000       0.58181149       0.00000000      -0.03058299      -0.02789944       0.00000000      -0.00633401      -0.00431910      -0.00000000       0.00633401      -0.00431910      -0.00000000       0.00602133       0.00137569      -0.00000000       0.00000000       0.01067803       0.00000000       0.03058299      -0.02789944       0.00000000       0.00000000       0.00912776       0.00000000      -0.00602133       0.00137569      -0.00000000       0.00000000       0.00846078      -0.00000000      -0.00590408      -0.00587535       0.00000000      -0.09062318       0.19859075      -0.00000000       0.09062318       0.19859075      -0.00000000      -0.01246981      -0.00492188      -0.00000000       0.00000000       0.00825843       0.00000000       0.00590408      -0.00587535      -0.00000000      -0.00000000       0.01241760       0.00000000       0.01246981      -0.00492188      -0.00000000       0.43045713       1.32738506       0.00000000      -0.00989425      -0.00519605      -0.00000000       0.02319825       0.03743982       0.00000000      -0.00298107       0.00208592      -0.00000000       0.00102066      -0.01881166      -0.00000000      -0.00551384       0.00112777       0.00000000       0.00511628       0.00436375      -0.00000000      -0.00690556      -0.00283302       0.00000000       0.02969484      -0.00162518       0.00000000       0.05255407       0.00160770      -0.00000000       0.00546813       0.00294652      -0.00000000       0.18962689      -0.02389590       0.00000000       0.01145388      -0.01137792       0.00000000      -0.00206086      -0.02272168      -0.00000000       0.01021060      -0.00123785      -0.00000000      -0.00768757      -0.00036559      -0.00000000       0.00202423      -0.00157592       0.00000000       0.02899456      -0.04196161       0.00000000 </v>
    <v>       0.00000000       0.00000000      -1.14677066      -0.00000000       0.00000000      -0.00120307       0.00000000      -0.00000000      -0.00120307       0.00000000       0.00000000      -0.00120307      -0.00000000      -0.00000000      -0.00120307      -0.00000000      -0.00000000      -0.00010408       0.00000000       0.00000000      -0.00120307       0.00000000       0.00000000      -0.00010408      -0.00000000      -0.00000000      -0.00120307       0.00000000       0.00000000       0.03675768       0.00000000      -0.00000000       0.00176083       0.00000000       0.00000000       0.03675768      -0.00000000      -0.00000000       0.03675768      -0.00000000      -0.00000000       0.01064699       0.00000000       0.00000000       0.01064699      -0.00000000       0.00000000       0.00176083       0.00000000       0.00000000       0.00176083      -0.00000000      -0.00000000       0.01064699       0.00000000       0.00000000       0.46793150      -0.00000000      -0.00000000      -0.00069119      -0.00000000      -0.00000000      -0.00069119      -0.00000000       0.00000000      -0.05505548       0.00000000       0.00000000      -0.05505548      -0.00000000      -0.00000000       0.00066023      -0.00000000       0.00000000      -0.00073076      -0.00000000       0.00000000      -0.00113860       0.00000000      -0.00000000      -0.00073076      -0.00000000      -0.00000000      -0.02827923      -0.00000000      -0.00000000      -0.00000939      -0.00000000      -0.00000000      -0.00105560       0.00000000      -0.00000000      -0.02827923      -0.00000000       0.00000000       0.02225297      -0.00000000      -0.00000000      -0.00305374      -0.00000000      -0.00000000       0.00440830      -0.00000000       0.00000000      -0.00000939      -0.00000000       0.00000000      -0.00305374       0.00000000      -0.00000000       0.46793150      -0.00000000       0.00000000      -0.05505548       0.00000000      -0.00000000      -0.00073076       0.00000000       0.00000000      -0.00073076      -0.00000000      -0.00000000      -0.00069119      -0.00000000       0.00000000       0.00066023       0.00000000       0.00000000      -0.05505548       0.00000000      -0.00000000      -0.00113860       0.00000000       0.00000000      -0.00069119      -0.00000000       0.00000000      -0.00105560       0.00000000      -0.00000000      -0.00000939      -0.00000000      -0.00000000      -0.02827923       0.00000000       0.00000000      -0.02827923       0.00000000      -0.00000000      -0.00305374       0.00000000      -0.00000000       0.02225297       0.00000000      -0.00000000      -0.00000939      -0.00000000       0.00000000       0.00440830       0.00000000      -0.00000000      -0.00305374      -0.00000000       0.00000000       0.46793150      -0.00000000      -0.00000000      -0.00073076       0.00000000      -0.00000000      -0.05505548       0.00000000      -0.00000000      -0.00069119      -0.00000000      -0.00000000      -0.00073076      -0.00000000      -0.00000000       0.00066023      -0.00000000       0.00000000      -0.00069119      -0.00000000      -0.00000000      -0.00113860      -0.00000000      -0.00000000      -0.05505548       0.00000000      -0.00000000      -0.02827923      -0.00000000      -0.00000000       0.00440830      -0.00000000      -0.00000000      -0.02827923      -0.00000000      -0.00000000      -0.00105560       0.00000000      -0.00000000      -0.00305374       0.00000000       0.00000000      -0.00305374      -0.00000000      -0.00000000      -0.00000939       0.00000000       0.00000000      -0.00000939       0.00000000       0.00000000       0.02225297 </v>
    <v>       0.01802584       0.02905160      -0.00000000      -3.73600739      -0.00000000       0.00000000       0.01802584       0.01932164       0.00000000       0.01310427      -0.00000000       0.00000000       0.01802584      -0.02905160       0.00000000      -0.02386661       0.00486498      -0.00000000      -0.02386661      -0.00486498      -0.00000000       0.01802584      -0.01932164       0.00000000       0.01310427       0.00000000      -0.00000000      -0.05984031       0.06898495       0.00000000       0.05964514      -0.00000000       0.00000000       0.00526518       0.00972144      -0.00000000       0.07145725       0.00000000       0.00000000      -0.05984031      -0.06898495       0.00000000       0.02686333       0.02574631      -0.00000000       0.02686333      -0.02574631      -0.00000000       0.00526518      -0.00972144       0.00000000      -0.01157285       0.00000000       0.00000000       0.00313099      -0.00643138      -0.00000000       0.83033614      -0.43045713      -0.00000000       0.00085315       0.00429618       0.00000000       0.00749461       0.00551384      -0.00000000      -0.03216302      -0.00714065       0.00000000       0.00690198      -0.04575245      -0.00000000      -0.00007288       0.00203327      -0.00000000      -0.01368849       0.00684031      -0.00000000       0.00514083       0.00690556      -0.00000000       0.00184788      -0.01145388      -0.00000000       0.11592735      -0.20435140       0.00000000      -0.00484565      -0.00272302       0.00000000      -0.01801643      -0.01034283       0.00000000       0.14143095      -0.03782956       0.00000000      -0.00848159      -0.02899456       0.00000000       0.00346741       0.00219310       0.00000000       0.00926058      -0.00546813      -0.00000000      -0.00363532       0.00838635       0.00000000      -0.01456544      -0.00938795       0.00000000       1.57590982      -0.00000000       0.00000000       0.03317624      -0.01452539      -0.00000000      -0.00205564      -0.00000000      -0.00000000      -0.01456544       0.00938795      -0.00000000       0.00384121      -0.00339112       0.00000000       0.00384121       0.00339112      -0.00000000       0.03317624       0.01452539       0.00000000      -0.00681994      -0.00000000       0.00000000      -0.08105573       0.06117415       0.00000000      -0.01799082      -0.00000000      -0.00000000       0.00066411       0.00450651       0.00000000      -0.05870164      -0.00000000       0.00000000      -0.08105573      -0.06117415      -0.00000000      -0.01433239      -0.01233758      -0.00000000      -0.01433239       0.01233758       0.00000000       0.00066411      -0.00450651      -0.00000000      -0.00021050       0.00000000      -0.00000000      -0.03216302       0.00714065      -0.00000000       0.83033614       0.43045713       0.00000000      -0.01368849      -0.00684031       0.00000000       0.00749461      -0.00551384       0.00000000       0.00313099       0.00643138       0.00000000      -0.00007288      -0.00203327       0.00000000       0.00690198       0.04575245       0.00000000       0.00085315      -0.00429618      -0.00000000       0.00514083      -0.00690556       0.00000000       0.14143095       0.03782956      -0.00000000       0.11592735       0.20435140      -0.00000000       0.00926058       0.00546813       0.00000000      -0.01801643       0.01034283      -0.00000000       0.00184788       0.01145388       0.00000000       0.00346741      -0.00219310      -0.00000000      -0.00848159       0.02899456      -0.00000000      -0.00484565       0.00272302      -0.00000000      -0.00363532      -0.00838635      -0.00000000 </v>
    <v>       0.01932164      -0.00990246       0.00000000      -0.00000000      -3.73600682       0.00000000       0.02905160      -0.00990246      -0.00000000       0.00000000       0.01310426       0.00000000      -0.01932164      -0.00990246       0.00000000      -0.00486498       0.03198999      -0.00000000       0.00486498       0.03198999      -0.00000000      -0.02905160      -0.00990246       0.00000000      -0.00000000       0.01310426      -0.00000000       0.06898495       0.01981665       0.00000000      -0.00000000      -0.09966878       0.00000000       0.00972144      -0.00596017       0.00000000       0.00000000       0.01199868       0.00000000      -0.06898495       0.01981665       0.00000000       0.02574631       0.05659260       0.00000000      -0.02574631       0.05659260       0.00000000      -0.00972144      -0.00596017       0.00000000       0.00000000       0.01087786       0.00000000       0.00298107       0.00208592      -0.00000000      -0.43045713       1.32738506       0.00000000      -0.00511628       0.00436375      -0.00000000       0.00551384       0.00112777       0.00000000      -0.02319825       0.03743982       0.00000000      -0.02969484      -0.00162518       0.00000000      -0.00102066      -0.01881166      -0.00000000       0.00989425      -0.00519605      -0.00000000       0.00690556      -0.00283302       0.00000000      -0.01145388      -0.01137792       0.00000000      -0.05255407       0.00160770      -0.00000000       0.00768757      -0.00036559      -0.00000000      -0.01021060      -0.00123785      -0.00000000      -0.18962689      -0.02389590       0.00000000      -0.02899456      -0.04196161       0.00000000       0.00206086      -0.02272168      -0.00000000      -0.00546813       0.00294652      -0.00000000      -0.00202423      -0.00157592       0.00000000      -0.00633401      -0.00431910      -0.00000000      -0.00000000       0.58181149       0.00000000      -0.03058299      -0.02789944       0.00000000       0.00000000       0.01067803       0.00000000       0.00633401      -0.00431910      -0.00000000       0.00602133       0.00137569      -0.00000000      -0.00602133       0.00137569      -0.00000000       0.03058299      -0.02789944       0.00000000       0.00000000       0.00912776       0.00000000      -0.09062318       0.19859075      -0.00000000       0.00000000       0.00846078      -0.00000000      -0.00590408      -0.00587535       0.00000000       0.00000000       0.00825843       0.00000000       0.09062318       0.19859075      -0.00000000      -0.01246981      -0.00492188      -0.00000000       0.01246981      -0.00492188      -0.00000000       0.00590408      -0.00587535      -0.00000000      -0.00000000       0.01241760       0.00000000       0.02319825       0.03743982       0.00000000       0.43045713       1.32738506       0.00000000      -0.00989425      -0.00519605      -0.00000000      -0.00551384       0.00112777       0.00000000      -0.00298107       0.00208592      -0.00000000       0.00102066      -0.01881166      -0.00000000       0.02969484      -0.00162518       0.00000000       0.00511628       0.00436375      -0.00000000      -0.00690556      -0.00283302       0.00000000       0.18962689      -0.02389590       0.00000000       0.05255407       0.00160770      -0.00000000       0.00546813       0.00294652      -0.00000000       0.01021060      -0.00123785      -0.00000000       0.01145388      -0.01137792       0.00000000      -0.00206086      -0.02272168      -0.00000000       0.02899456      -0.04196161       0.00000000      -0.00768757      -0.00036559      -0.00000000       0.00202423      -0.00157592       0.00000000 </v>
    <v>       0.00000000      -0.00000000      -0.00120307       0.00000000       0.00000000      -1.14677066      -0.00000000       0.00000000      -0.00120307      -0.00000000      -0.00000000      -0.00010408       0.00000000       0.00000000      -0.00120307      -0.00000000      -0.00000000      -0.00120307      -0.00000000      -0.00000000      -0.00120307       0.00000000       0.00000000      -0.00120307       0.00000000       0.00000000      -0.00010408       0.00000000       0.00000000       0.03675768       0.00000000       0.00000000       0.03675768       0.00000000      -0.00000000       0.00176083       0.00000000       0.00000000       0.01064699      -0.00000000      -0.00000000       0.03675768      -0.00000000      -0.00000000       0.01064699      -0.00000000      -0.00000000       0.01064699      -0.00000000       0.00000000       0.00176083       0.00000000       0.00000000       0.00176083      -0.00000000      -0.00000000      -0.00069119       0.00000000       0.00000000       0.46793150      -0.00000000      -0.00000000      -0.00069119      -0.00000000      -0.00000000       0.00066023      -0.00000000       0.00000000      -0.05505548       0.00000000       0.00000000      -0.05505548       0.00000000      -0.00000000      -0.00073076      -0.00000000       0.00000000      -0.00073076      -0.00000000       0.00000000      -0.00113860      -0.00000000      -0.00000000      -0.00105560      -0.00000000      -0.00000000      -0.02827923      -0.00000000      -0.00000000      -0.00000939      -0.00000000      -0.00000000      -0.00305374       0.00000000      -0.00000000      -0.02827923      -0.00000000       0.00000000       0.02225297      -0.00000000       0.00000000      -0.00305374      -0.00000000      -0.00000000       0.00440830      -0.00000000       0.00000000      -0.00000939       0.00000000      -0.00000000      -0.00073076       0.00000000      -0.00000000       0.46793150      -0.00000000       0.00000000      -0.05505548      -0.00000000       0.00000000       0.00066023       0.00000000       0.00000000      -0.00073076      -0.00000000      -0.00000000      -0.00069119       0.00000000       0.00000000      -0.00069119       0.00000000       0.00000000      -0.05505548       0.00000000      -0.00000000      -0.00113860      -0.00000000      -0.00000000      -0.02827923      -0.00000000       0.00000000      -0.00105560       0.00000000      -0.00000000      -0.00000939       0.00000000      -0.00000000       0.02225297       0.00000000       0.00000000      -0.02827923       0.00000000      -0.00000000      -0.00305374       0.00000000      -0.00000000      -0.00305374       0.00000000      -0.00000000      -0.00000939      -0.00000000       0.00000000       0.00440830       0.00000000      -0.00000000      -0.05505548      -0.00000000       0.00000000       0.46793150      -0.00000000      -0.00000000      -0.00073076      -0.00000000      -0.00000000       0.00066023       0.00000000      -0.00000000      -0.00069119      -0.00000000      -0.00000000      -0.00073076      -0.00000000      -0.00000000      -0.05505548      -0.00000000       0.00000000      -0.00069119      -0.00000000      -0.00000000      -0.00113860      -0.00000000      -0.00000000      -0.02827923       0.00000000      -0.00000000      -0.02827923      -0.00000000      -0.00000000       0.00440830       0.00000000       0.00000000      -0.00305374      -0.00000000      -0.00000000      -0.00105560       0.00000000      -0.00000000      -0.00305374       0.00000000       0.00000000       0.02225297      -0.00000000      -0.00000000      -0.00000939       0.00000000       0.00000000      -0.00000939 </v>
[...]
       <r>   -19.7072     0.0000     0.0000 </r>
       <r>   -19.6216     0.0000     0.0000 </r>
       <r>   -19.5361     0.0000     0.0000 </r>
       <r>   -19.4505     0.0000     0.0000 </r>
       <r>   -19.3649     0.0000     0.0000 </r>
       <r>   -19.2794     0.0000     0.0000 </r>
       <r>   -19.1938     0.0000     0.0000 </r>
       <r>   -19.1082     0.0000     0.0000 </r>
       <r>   -19.0226     0.0000     0.0000 </r>
       <r>   -18.9371     0.0000     0.0000 </r>
       <r>   -18.8515     0.0000     0.0000 </r>
       <r>   -18.7659     0.0026     0.0002 </r>
       <r>   -18.6804     0.1218     0.0106 </r>
       <r>   -18.5948     1.6456     0.1515 </r>
       <r>   -18.5092     7.5038     0.7936 </r>
       <r>   -18.4236    14.7025     2.0517 </r>
       <r>   -18.3381    18.1498     3.6048 </r>
       <r>   -18.2525    19.9078     5.3083 </r>
       <r>   -18.1669    22.4922     7.2330 </r>
       <r>   -18.0814    27.6742     9.6011 </r>
       <r>   -17.9958    36.7086    12.7423 </r>
       <r>   -17.9102    37.4558    15.9475 </r>
       <r>   -17.8246    19.5386    17.6194 </r>
       <r>   -17.7391     4.1371    17.9734 </r>
       <r>   -17.6535     0.3038    17.9994 </r>
       <r>   -17.5679     0.0068    18.0000 </r>
       <r>   -17.4824     0.0000    18.0000 </r>
       <r>   -17.3968     0.0000    18.0000 </r>
       <r>   -17.3112     0.0000    18.0000 </r>
       <r>   -17.2256     0.0000    18.0000 </r>
       <r>   -17.1401     0.0000    18.0000 </r>
       <r>   -17.0545     0.0000    18.0000 </r>
       <r>   -16.9689     0.0000    18.0000 </r>
       <r>   -16.8834     0.0000    18.0000 </r>
       <r>   -16.7978     0.0000    18.0000 </r>
       <r>   -16.7122     0.0000    18.0000 </r>
       <r>   -16.6266     0.0000    18.0000 </r>
       <r>   -16.5411     0.0004    18.0000 </r>
       <r>   -16.4555     0.0305    18.0026 </r>
       <r>   -16.3699     0.7328    18.0653 </r>
       <r>   -16.2844     5.7777    18.5598 </r>
       <r>   -16.1988    17.0207    20.0162 </r>
       <r>   -16.1132    26.0569    22.2460 </r>
       <r>   -16.0276    29.7538    24.7920 </r>
       <r>   -15.9421    24.0923    26.8536 </r>
       <r>   -15.8565    18.5445    28.4405 </r>
       <r>   -15.7709    15.5286    29.7693 </r>
       <r>   -15.6854    18.3853    31.3426 </r>
       <r>   -15.5998    17.8276    32.8681 </r>
       <r>   -15.5142    16.6760    34.2951 </r>
       <r>   -15.4286    19.7536    35.9854 </r>
       <r>   -15.3431    22.4645    37.9077 </r>
       <r>   -15.2575    23.9329    39.9557 </r>
       <r>   -15.1719    26.8322    42.2518 </r>
       <r>   -15.0864    32.9995    45.0756 </r>
       <r>   -15.0008    30.0677    47.6485 </r>
       <r>   -14.9152    22.8925    49.6075 </r>
       <r>   -14.8296    18.0034    51.1480 </r>
       <r>   -14.7441    16.4049    52.5518 </r>
       <r>   -14.6585    11.5158    53.5372 </r>
       <r>   -14.5729     4.5442    53.9261 </r>
       <r>   -14.4874     0.8133    53.9957 </r>
       <r>   -14.4018     0.0495    53.9999 </r>
       <r>   -14.3162     0.0009    54.0000 </r>
       <r>   -14.2306     0.0000    54.0000 </r>
       <r>   -14.1451     0.0000    54.0000 </r>
       <r>   -14.0595     0.0000    54.0000 </r>
       <r>   -13.9739     0.0000    54.0000 </r>
       <r>   -13.8884     0.0000    54.0000 </r>
       <r>   -13.8028     0.0000    54.0000 </r>
       <r>   -13.7172     0.0000    54.0000 </r>
       <r>   -13.6316     0.0000    54.0000 </r>
       <r>   -13.5461     0.0000    54.0000 </r>
       <r>   -13.4605     0.0000    54.0000 </r>
       <r>   -13.3749     0.0000    54.0000 </r>
       <r>   -13.2894     0.0000    54.0000 </r>
       <r>   -13.2038     0.0000    54.0000 </r>
       <r>   -13.1182     0.0003    54.0000 </r>
       <r>   -13.0326     0.0269    54.0023 </r>
       <r>   -12.9471     0.5934    54.0531 </r>
       <r>   -12.8615     3.9006    54.3869 </r>
       <r>   -12.7759    10.3391    55.2716 </r>
       <r>   -12.6904    18.6285    56.8657 </r>
       <r>   -12.6048    24.0465    58.9234 </r>
       <r>   -12.5192    21.7609    60.7855 </r>
       <r>   -12.4336    22.5747    62.7172 </r>
       <r>   -12.3481    32.7169    65.5169 </r>
       <r>   -12.2625    34.8547    68.4994 </r>
       <r>   -12.1769    17.8159    70.0240 </r>
       <r>   -12.0914     8.7817    70.7754 </r>
       <r>   -12.0058    10.6166    71.6839 </r>
       <r>   -11.9202    15.0296    72.9700 </r>
       <r>   -11.8346    17.7830    74.4917 </r>
       <r>   -11.7491    13.2291    75.6237 </r>
       <r>   -11.6635     7.1843    76.2385 </r>
       <r>   -11.5779     6.1517    76.7649 </r>
       <r>   -11.4924    14.1451    77.9753 </r>
       <r>   -11.4068    22.3437    79.8873 </r>
       <r>   -11.3212    16.2237    81.2756 </r>
       <r>   -11.2357    11.1675    82.2312 </r>
       <r>   -11.1501    14.3247    83.4570 </r>
       <r>   -11.0645    20.9170    85.2469 </r>
       <r>   -10.9789    19.6030    86.9243 </r>
       <r>   -10.8934    11.6696    87.9229 </r>
       <r>   -10.8078    10.2219    88.7976 </r>
       <r>   -10.7222    14.5429    90.0421 </r>
       <r>   -10.6367    16.1333    91.4226 </r>
       <r>   -10.5511     7.5541    92.0690 </r>
       <r>   -10.4655     3.1902    92.3420 </r>
       <r>   -10.3799     4.7936    92.7522 </r>
       <r>   -10.2944     8.4111    93.4720 </r>
       <r>   -10.2088     6.6868    94.0442 </r>
       <r>   -10.1232     4.6295    94.4403 </r>
       <r>   -10.0377     1.9675    94.6087 </r>
       <r>    -9.9521     0.6662    94.6657 </r>
       <r>    -9.8665     2.0091    94.8376 </r>
       <r>    -9.7809     9.0402    95.6112 </r>
       <r>    -9.6954    16.0215    96.9822 </r>
       <r>    -9.6098    10.2437    97.8588 </r>
       <r>    -9.5242     8.0814    98.5503 </r>
       <r>    -9.4387    10.6576    99.4623 </r>
       <r>    -9.3531    13.5264   100.6198 </r>
       <r>    -9.2675    11.0864   101.5684 </r>
       <r>    -9.1819    10.5431   102.4706 </r>
       <r>    -9.0964    21.0795   104.2744 </r>
       <r>    -9.0108    25.8314   106.4848 </r>
       <r>    -8.9252    25.1880   108.6402 </r>
       <r>    -8.8397    18.5283   110.2257 </r>
       <r>    -8.7541    13.4356   111.3754 </r>
       <r>    -8.6685     9.6664   112.2026 </r>
       <r>    -8.5829     5.5586   112.6782 </r>
       <r>    -8.4974    11.4719   113.6599 </r>
       <r>    -8.4118    31.1961   116.3294 </r>
       <r>    -8.3262    40.2992   119.7778 </r>
       <r>    -8.2407    26.2362   122.0229 </r>
       <r>    -8.1551     9.2719   122.8163 </r>
       <r>    -8.0695     7.7452   123.4791 </r>
       <r>    -7.9839    16.4373   124.8856 </r>
       <r>    -7.8984    21.1465   126.6952 </r>
       <r>    -7.8128    16.2245   128.0835 </r>
       <r>    -7.7272    15.8807   129.4425 </r>
       <r>    -7.6417    26.6055   131.7191 </r>
       <r>    -7.5561    34.4996   134.6713 </r>
       <r>    -7.4705    20.3253   136.4105 </r>
       <r>    -7.3849    12.4286   137.4741 </r>
       <r>    -7.2994    24.1175   139.5379 </r>
       <r>    -7.2138    30.8474   142.1775 </r>
       <r>    -7.1282    23.7391   144.2089 </r>
       <r>    -7.0427    21.3019   146.0317 </r>
       <r>    -6.9571    21.8442   147.9010 </r>
       <r>    -6.8715    17.3499   149.3856 </r>
       <r>    -6.7859    18.8004   150.9944 </r>
       <r>    -6.7004    20.6170   152.7586 </r>
       <r>    -6.6148    28.5214   155.1992 </r>
       <r>    -6.5292    39.6320   158.5906 </r>
       <r>    -6.4437    38.5762   161.8916 </r>
       <r>    -6.3581    31.8977   164.6211 </r>
       <r>    -6.2725    37.6329   167.8414 </r>
       <r>    -6.1869    38.3603   171.1240 </r>
       <r>    -6.1014    27.6536   173.4903 </r>
       <r>    -6.0158    15.8702   174.8484 </r>
       <r>    -5.9302    17.4115   176.3383 </r>
       <r>    -5.8447    18.8750   177.9534 </r>
       <r>    -5.7591    13.5361   179.1117 </r>
       <r>    -5.6735    16.4556   180.5199 </r>
       <r>    -5.5879    18.2245   182.0794 </r>
       <r>    -5.5024    12.7227   183.1681 </r>
       <r>    -5.4168    15.1312   184.4629 </r>
       <r>    -5.3312    19.6660   186.1457 </r>
       <r>    -5.2457    27.7128   188.5171 </r>
       <r>    -5.1601    36.3271   191.6257 </r>
       <r>    -5.0745    58.1389   196.6007 </r>
       <r>    -4.9889    75.8443   203.0908 </r>
       <r>    -4.9034    61.4013   208.3450 </r>
       <r>    -4.8178    46.8589   212.3547 </r>
       <r>    -4.7322    33.4073   215.2135 </r>
       <r>    -4.6467    16.0822   216.5896 </r>
       <r>    -4.5611    16.4577   217.9979 </r>
       <r>    -4.4755    27.1939   220.3250 </r>
       <r>    -4.3899    31.9148   223.0559 </r>
       <r>    -4.3044    21.5716   224.9018 </r>
       <r>    -4.2188    13.1174   226.0243 </r>
       <r>    -4.1332    16.4349   227.4307 </r>
       <r>    -4.0477    29.9357   229.9923 </r>
       <r>    -3.9621    35.2306   233.0070 </r>
       <r>    -3.8765    31.7811   235.7266 </r>
       <r>    -3.7909    26.8752   238.0263 </r>
       <r>    -3.7054    24.2903   240.1049 </r>
       <r>    -3.6198    40.2585   243.5499 </r>
       <r>    -3.5342    48.5787   247.7068 </r>
       <r>    -3.4487    38.0065   250.9591 </r>
       <r>    -3.3631    38.1291   254.2218 </r>
       <r>    -3.2775    44.5218   258.0316 </r>
       <r>    -3.1919    37.2867   261.2223 </r>
       <r>    -3.1064    18.5436   262.8091 </r>
       <r>    -3.0208    11.5149   263.7944 </r>
       <r>    -2.9352    15.6450   265.1332 </r>
       <r>    -2.8497    13.7106   266.3064 </r>
       <r>    -2.7641     8.1742   267.0059 </r>
       <r>    -2.6785     9.4189   267.8119 </r>
       <r>    -2.5930    10.8949   268.7442 </r>
       <r>    -2.5074     8.8032   269.4975 </r>
       <r>    -2.4218     4.5929   269.8905 </r>
       <r>    -2.3362     1.1627   269.9900 </r>
       <r>    -2.2507     0.1135   269.9997 </r>
       <r>    -2.1651     0.0035   270.0000 </r>
       <r>    -2.0795     0.0008   270.0001 </r>
       <r>    -1.9940     0.0468   270.0041 </r>
       <r>    -1.9084     0.8039   270.0729 </r>
       <r>    -1.8228     4.0653   270.4207 </r>
       <r>    -1.7372     7.3611   271.0506 </r>
       <r>    -1.6517    10.2355   271.9265 </r>
       <r>    -1.5661    18.0079   273.4675 </r>
       <r>    -1.4805    22.2141   275.3684 </r>
       <r>    -1.3950    17.6193   276.8761 </r>
       <r>    -1.3094    15.2728   278.1830 </r>
       <r>    -1.2238    21.0548   279.9847 </r>
       <r>    -1.1382    25.7132   282.1850 </r>
       <r>    -1.0527    20.3810   283.9290 </r>
       <r>    -0.9671     8.1337   284.6250 </r>
       <r>    -0.8815     5.8675   285.1271 </r>
       <r>    -0.7960     7.8251   285.7967 </r>
       <r>    -0.7104     4.7339   286.2018 </r>
       <r>    -0.6248     6.5939   286.7660 </r>
       <r>    -0.5392     8.1953   287.4673 </r>
       <r>    -0.4537     2.9996   287.7240 </r>
       <r>    -0.3681     0.2963   287.7493 </r>
       <r>    -0.2825     0.0097   287.7502 </r>
       <r>    -0.1970     0.0864   287.7576 </r>
       <r>    -0.1114     0.9022   287.8348 </r>
       <r>    -0.0258     2.5172   288.0502 </r>
       <r>     0.0598     1.9171   288.2142 </r>
       <r>     0.1453     0.3961   288.2481 </r>
       <r>     0.2309     0.0221   288.2500 </r>
       <r>     0.3165     0.0461   288.2540 </r>
       <r>     0.4020     0.9562   288.3358 </r>
       <r>     0.4876     5.2425   288.7844 </r>
       <r>     0.5732     7.8377   289.4551 </r>
       <r>     0.6588     4.0098   289.7982 </r>
       <r>     0.7443     3.6476   290.1103 </r>
       <r>     0.8299     3.5159   290.4112 </r>
       <r>     0.9155     2.0684   290.5882 </r>
       <r>     1.0010     9.4111   291.3935 </r>
       <r>     1.0866    24.5224   293.4919 </r>
       <r>     1.1722    25.8194   295.7013 </r>
       <r>     1.2578    20.2236   297.4319 </r>
       <r>     1.3433    18.5278   299.0173 </r>
       <r>     1.4289    18.1028   300.5664 </r>
       <r>     1.5145    16.5428   301.9820 </r>
       <r>     1.6000    17.7900   303.5043 </r>
       <r>     1.6856    13.6075   304.6687 </r>
       <r>     1.7712     8.3248   305.3811 </r>
       <r>     1.8568    11.5376   306.3684 </r>
       <r>     1.9423    19.6238   308.0476 </r>
       <r>     2.0279    19.8257   309.7441 </r>
       <r>     2.1135    15.3906   311.0611 </r>
       <r>     2.1990    14.8827   312.3346 </r>
       <r>     2.2846    16.2963   313.7291 </r>
       <r>     2.3702    17.1837   315.1996 </r>
       <r>     2.4558    19.3717   316.8572 </r>
       <r>     2.5413    19.2103   318.5011 </r>
       <r>     2.6269    17.3434   319.9852 </r>
       <r>     2.7125    12.2567   321.0340 </r>
       <r>     2.7980    19.3730   322.6918 </r>
       <r>     2.8836    28.8535   325.1608 </r>
       <r>     2.9692    23.0926   327.1369 </r>
       <r>     3.0548    14.9409   328.4154 </r>
       <r>     3.1403    13.7528   329.5922 </r>
       <r>     3.2259    17.9725   331.1302 </r>
       <r>     3.3115    27.6449   333.4958 </r>
       <r>     3.3970    28.1633   335.9057 </r>
       <r>     3.4826    15.2350   337.2094 </r>
       <r>     3.5682    10.3829   338.0979 </r>
       <r>     3.6538    10.5648   339.0019 </r>
       <r>     3.7393    16.1480   340.3837 </r>
       <r>     3.8249    23.5202   342.3964 </r>
       <r>     3.9105    23.8413   344.4365 </r>
       <r>     3.9960    19.6077   346.1144 </r>
       <r>     4.0816    14.9226   347.3913 </r>
       <r>     4.1672    13.6785   348.5618 </r>
       <r>     4.2528    13.9493   349.7555 </r>
       <r>     4.3383    16.6545   351.1806 </r>
       <r>     4.4239    20.0991   352.9005 </r>
       <r>     4.5095    20.4466   354.6502 </r>
       <r>     4.5950    17.4815   356.1461 </r>
       <r>     4.6806    13.9457   357.3394 </r>
       <r>     4.7662    15.3089   358.6494 </r>
       <r>     4.8518    12.0753   359.6827 </r>
       <r>     4.9373     3.4009   359.9738 </r>
       <r>     5.0229     0.2990   359.9993 </r>
       <r>     5.1085     0.0076   360.0000 </r>
       <r>     5.1940     0.0001   360.0000 </r>
       <r>     5.2796     0.0000   360.0000 </r>
       <r>     5.3652     0.0000   360.0000 </r>
       <r>     5.4508     0.0000   360.0000 </r>
       <r>     5.5363     0.0000   360.0000 </r>
       <r>     5.6219     0.0000   360.0000 </r>
       <r>     5.7075     0.0000   360.0000 </r>
       <r>     5.7930     0.0000   360.0000 </r>
       <r>     5.8786     0.0000   360.0000 </r>
       <r>     5.9642     0.0000   360.0000 </r>
      </set>
     </set>
    </array>
   </total>
  </dos>
 </calculation>
 <structure name="finalpos" >
  <crystal>
   <varray name="basis" >
    <v>      13.44254530       7.76105656       0.00000000 </v>
    <v>     -13.44254530       7.76105656       0.00000000 </v>
    <v>       0.00000000       0.00000000       8.52022140 </v>
   </varray>
   <i name="volume">   1777.80135444 </i>
   <varray name="rec_basis" >
    <v>       0.03719534       0.06442422       0.00000000 </v>
    <v>      -0.03719534       0.06442422       0.00000000 </v>
    <v>       0.00000000       0.00000000       0.11736784 </v>
   </varray>
  </crystal>
  <varray name="positions" >
   <v>       0.11111100       0.22222200       0.25000000 </v>
   <v>       0.44444433       0.22222200       0.25000000 </v>
   <v>       0.77777767       0.22222200       0.25000000 </v>
   <v>       0.11111100       0.55555533       0.25000000 </v>
   <v>       0.44444433       0.55555533       0.25000000 </v>
   <v>       0.77777767       0.55555533       0.25000000 </v>
   <v>       0.11111100       0.88888867       0.25000000 </v>
   <v>       0.44444433       0.88888867       0.25000000 </v>
   <v>       0.77777767       0.88888867       0.25000000 </v>
   <v>       0.22222200       0.11111100       0.25000000 </v>
   <v>       0.55555533       0.11111100       0.25000000 </v>
   <v>       0.88888867       0.11111100       0.25000000 </v>
   <v>       0.22222200       0.44444433       0.25000000 </v>
   <v>       0.55555533       0.44444433       0.25000000 </v>
   <v>       0.88888867       0.44444433       0.25000000 </v>
   <v>       0.22222200       0.77777767       0.25000000 </v>
   <v>       0.55555533       0.77777767       0.25000000 </v>
   <v>       0.88888867       0.77777767       0.25000000 </v>
   <v>       0.05289708       0.10579449       0.25000000 </v>
   <v>       0.38623041       0.10579449       0.25000000 </v>
   <v>       0.71956375       0.10579449       0.25000000 </v>
   <v>       0.05289708       0.43912783       0.25000000 </v>
   <v>       0.38623041       0.43912783       0.25000000 </v>
   <v>       0.71956375       0.43912783       0.25000000 </v>
   <v>       0.05289708       0.77246116       0.25000000 </v>
   <v>       0.38623041       0.77246116       0.25000000 </v>
   <v>       0.71956375       0.77246116       0.25000000 </v>
   <v>       0.10579449       0.05289708       0.25000000 </v>
   <v>       0.43912783       0.05289708       0.25000000 </v>
   <v>       0.77246116       0.05289708       0.25000000 </v>
   <v>       0.10579449       0.38623041       0.25000000 </v>
   <v>       0.43912783       0.38623041       0.25000000 </v>
   <v>       0.77246116       0.38623041       0.25000000 </v>
   <v>       0.10579449       0.71956375       0.25000000 </v>
   <v>       0.43912783       0.71956375       0.25000000 </v>
   <v>       0.77246116       0.71956375       0.25000000 </v>
   <v>       0.05289708       0.28043592       0.25000000 </v>
   <v>       0.38623041       0.28043592       0.25000000 </v>
   <v>       0.71956375       0.28043592       0.25000000 </v>
   <v>       0.05289708       0.61376925       0.25000000 </v>
   <v>       0.38623041       0.61376925       0.25000000 </v>
   <v>       0.71956375       0.61376925       0.25000000 </v>
   <v>       0.05289708       0.94710259       0.25000000 </v>
   <v>       0.38623041       0.94710259       0.25000000 </v>
   <v>       0.71956375       0.94710259       0.25000000 </v>
   <v>       0.28043592       0.05289708       0.25000000 </v>
   <v>       0.61376925       0.05289708       0.25000000 </v>
   <v>       0.94710259       0.05289708       0.25000000 </v>
   <v>       0.28043592       0.38623041       0.25000000 </v>
   <v>       0.61376925       0.38623041       0.25000000 </v>
   <v>       0.94710259       0.38623041       0.25000000 </v>
   <v>       0.28043592       0.71956375       0.25000000 </v>
   <v>       0.61376925       0.71956375       0.25000000 </v>
   <v>       0.94710259       0.71956375       0.25000000 </v>
   <v>       0.22753851       0.28043592       0.25000000 </v>
   <v>       0.56087184       0.28043592       0.25000000 </v>
   <v>       0.89420517       0.28043592       0.25000000 </v>
   <v>       0.22753851       0.61376925       0.25000000 </v>
   <v>       0.56087184       0.61376925       0.25000000 </v>
   <v>       0.89420517       0.61376925       0.25000000 </v>
   <v>       0.22753851       0.94710259       0.25000000 </v>
   <v>       0.56087184       0.94710259       0.25000000 </v>
   <v>       0.89420517       0.94710259       0.25000000 </v>
   <v>       0.28043592       0.22753851       0.25000000 </v>
   <v>       0.61376925       0.22753851       0.25000000 </v>
   <v>       0.94710259       0.22753851       0.25000000 </v>
   <v>       0.28043592       0.56087184       0.25000000 </v>
   <v>       0.61376925       0.56087184       0.25000000 </v>
   <v>       0.94710259       0.56087184       0.25000000 </v>
   <v>       0.28043592       0.89420517       0.25000000 </v>
   <v>       0.61376925       0.89420517       0.25000000 </v>
   <v>       0.94710259       0.89420517       0.25000000 </v>
  </varray>
 </structure>
</modeling>
