<?xml version="1.0" encoding="ISO-8859-1"?>
<modeling>
 <generator>
  <i name="program" type="string">vasp </i>
  <i name="version" type="string">5.4.4.18Apr17-6-g9f103f2a35  </i>
  <i name="subversion" type="string">(build Mar 30 2023 15:39:25) complex            parallel </i>
  <i name="platform" type="string">LinuxIFC </i>
  <i name="date" type="string">2023 06 16 </i>
  <i name="time" type="string">04:22:04 </i>
 </generator>
 <incar>
  <i type="string" name="SYSTEM"> BC3</i>
  <i type="int" name="ISTART">     0</i>
  <i type="string" name="PREC">accurate</i>
  <i type="string" name="ALGO"> Normal</i>
  <i type="int" name="ICHARG">     2</i>
  <i type="int" name="NELM">   200</i>
  <i type="int" name="IBRION">     2</i>
  <i name="EDIFF">      0.00000100</i>
  <i name="EDIFFG">     -0.00100000</i>
  <i type="int" name="NSW">     1</i>
  <i type="int" name="ISIF">     3</i>
  <i name="ENCUT">    450.00000000</i>
  <i name="POTIM">      0.01000000</i>
  <i type="int" name="ISMEAR">     0</i>
  <i name="SIGMA">      0.05000000</i>
  <v type="int" name="KPOINT_BSE">    -1     0     0     0</v>
  <i type="int" name="NELM">   200</i>
 </incar>
 <structure name="primitive_cell" >
  <crystal>
   <varray name="basis" >
    <v>       4.48084843       2.58701885       0.00000000 </v>
    <v>      -4.48084843       2.58701885       0.00000000 </v>
    <v>       0.00000000       0.00000000       8.52022140 </v>
   </varray>
   <i name="volume">    197.53348383 </i>
   <varray name="rec_basis" >
    <v>       0.11158601       0.19327265       0.00000000 </v>
    <v>      -0.11158601       0.19327265       0.00000000 </v>
    <v>       0.00000000       0.00000000       0.11736784 </v>
   </varray>
  </crystal>
  <varray name="positions" >
   <v>       0.33333300      -0.33333400       0.25000000 </v>
   <v>       0.15869124       0.31738348       0.25000000 </v>
   <v>      -0.31738448      -0.15869224       0.25000000 </v>
   <v>       0.15869124      -0.15869224       0.25000000 </v>
   <v>      -0.15869224       0.15869124       0.25000000 </v>
   <v>       0.31738348       0.15869124       0.25000000 </v>
   <v>      -0.15869224      -0.31738448       0.25000000 </v>
   <v>      -0.33333400       0.33333300       0.25000000 </v>
  </varray>
 </structure>
 <varray name="primitive_index" >
  <v type="int" >        1 </v>
  <v type="int" >        3 </v>
  <v type="int" >        7 </v>
  <v type="int" >        5 </v>
  <v type="int" >        6 </v>
  <v type="int" >        4 </v>
  <v type="int" >        8 </v>
  <v type="int" >        2 </v>
 </varray>
 <kpoints>
  <generation param="Gamma">
   <v type="int" name="divisions">      12       12        1 </v>
   <v name="usershift">      0.00000000       0.00000000       0.00000000 </v>
   <v name="genvec1">      0.08333333       0.00000000       0.00000000 </v>
   <v name="genvec2">      0.00000000       0.08333333       0.00000000 </v>
   <v name="genvec3">      0.00000000       0.00000000       1.00000000 </v>
   <v name="shift">      0.00000000       0.00000000       0.00000000 </v>
  </generation>
  <varray name="kpointlist" >
   <v>       0.00000000       0.00000000       0.00000000 </v>
   <v>       0.08333333       0.00000000       0.00000000 </v>
   <v>       0.16666667       0.00000000       0.00000000 </v>
   <v>       0.25000000      -0.00000000       0.00000000 </v>
   <v>       0.33333333      -0.00000000       0.00000000 </v>
   <v>       0.41666667       0.00000000       0.00000000 </v>
   <v>       0.50000000      -0.00000000       0.00000000 </v>
   <v>       0.08333333       0.08333333       0.00000000 </v>
   <v>       0.16666667       0.08333333       0.00000000 </v>
   <v>       0.25000000       0.08333333       0.00000000 </v>
   <v>       0.33333333       0.08333333       0.00000000 </v>
   <v>       0.41666667       0.08333333       0.00000000 </v>
   <v>       0.16666667       0.16666667       0.00000000 </v>
   <v>       0.25000000       0.16666667       0.00000000 </v>
   <v>       0.33333333       0.16666667       0.00000000 </v>
   <v>       0.41666667       0.16666667       0.00000000 </v>
   <v>       0.25000000       0.25000000       0.00000000 </v>
   <v>       0.33333333       0.25000000       0.00000000 </v>
   <v>       0.33333333       0.33333333       0.00000000 </v>
  </varray>
  <varray name="weights" >
   <v>       0.00694444 </v>
   <v>       0.04166667 </v>
   <v>       0.04166667 </v>
   <v>       0.04166667 </v>
   <v>       0.04166667 </v>
   <v>       0.04166667 </v>
   <v>       0.02083333 </v>
   <v>       0.04166667 </v>
   <v>       0.08333333 </v>
   <v>       0.08333333 </v>
   <v>       0.08333333 </v>
   <v>       0.08333333 </v>
   <v>       0.04166667 </v>
   <v>       0.08333333 </v>
   <v>       0.08333333 </v>
   <v>       0.04166667 </v>
   <v>       0.04166667 </v>
   <v>       0.08333333 </v>
   <v>       0.01388889 </v>
  </varray>
 </kpoints>
 <parameters>
  <separator name="general" >
   <i type="string" name="SYSTEM">BC3</i>
   <i type="logical" name="LCOMPAT"> F  </i>
  </separator>
  <separator name="electronic" >
   <i type="string" name="PREC">accura</i>
   <i name="ENMAX">    450.00000000</i>
   <i name="ENAUG">    644.87300000</i>
   <i name="EDIFF">      0.00000100</i>
   <i type="int" name="IALGO">    38</i>
   <i type="int" name="IWAVPR">    11</i>
   <i type="int" name="NBANDS">    24</i>
   <i name="NELECT">     30.00000000</i>
   <i type="int" name="TURBO">     0</i>
   <i type="int" name="IRESTART">     0</i>
   <i type="int" name="NREBOOT">     0</i>
   <i type="int" name="NMIN">     0</i>
   <i name="EREF">      0.00000000</i>
   <separator name="electronic smearing" >
    <i type="int" name="ISMEAR">     0</i>
    <i name="SIGMA">      0.05000000</i>
    <i name="KSPACING">      0.50000000</i>
    <i type="logical" name="KGAMMA"> T  </i>
   </separator>
   <separator name="electronic projectors" >
    <i type="logical" name="LREAL"> F  </i>
    <v name="ROPT">      0.00000000      0.00000000</v>
    <i type="int" name="LMAXPAW">  -100</i>
    <i type="int" name="LMAXMIX">     2</i>
    <i type="logical" name="NLSPLINE"> F  </i>
   </separator>
   <separator name="electronic startup" >
    <i type="int" name="ISTART">     0</i>
    <i type="int" name="ICHARG">     2</i>
    <i type="int" name="INIWAV">     1</i>
   </separator>
   <separator name="electronic spin" >
    <i type="int" name="ISPIN">     1</i>
    <i type="logical" name="LNONCOLLINEAR"> F  </i>
    <v name="MAGMOM">      1.00000000      1.00000000      1.00000000      1.00000000      1.00000000      1.00000000      1.00000000      1.00000000</v>
    <i name="NUPDOWN">     -1.00000000</i>
    <i type="logical" name="LSORBIT"> F  </i>
    <v name="SAXIS">      0.00000000      0.00000000      1.00000000</v>
    <i type="logical" name="LSPIRAL"> F  </i>
    <v name="QSPIRAL">      0.00000000      0.00000000      0.00000000</v>
    <i type="logical" name="LZEROZ"> F  </i>
   </separator>
   <separator name="electronic exchange-correlation" >
    <i type="logical" name="LASPH"> F  </i>
    <i type="logical" name="LMETAGGA"> F  </i>
   </separator>
   <separator name="electronic convergence" >
    <i type="int" name="NELM">   200</i>
    <i type="int" name="NELMDL">    -5</i>
    <i type="int" name="NELMIN">     2</i>
    <i name="ENINI">    450.00000000</i>
    <separator name="electronic convergence detail" >
     <i type="logical" name="LDIAG"> T  </i>
     <i type="logical" name="LSUBROT"> F  </i>
     <i name="WEIMIN">      0.00100000</i>
     <i name="EBREAK">      0.00000001</i>
     <i name="DEPER">      0.30000000</i>
     <i type="int" name="NRMM">     4</i>
     <i name="TIME">      0.40000000</i>
    </separator>
   </separator>
   <separator name="electronic mixer" >
    <i name="AMIX">      0.40000000</i>
    <i name="BMIX">      1.00000000</i>
    <i name="AMIN">      0.10000000</i>
    <i name="AMIX_MAG">      1.60000000</i>
    <i name="BMIX_MAG">      1.00000000</i>
    <separator name="electronic mixer details" >
     <i type="int" name="IMIX">     4</i>
     <i type="logical" name="MIXFIRST"> F  </i>
     <i type="int" name="MAXMIX">   -45</i>
     <i name="WC">    100.00000000</i>
     <i type="int" name="INIMIX">     1</i>
     <i type="int" name="MIXPRE">     1</i>
     <i type="int" name="MREMOVE">     5</i>
    </separator>
   </separator>
   <separator name="electronic dipolcorrection" >
    <i type="logical" name="LDIPOL"> F  </i>
    <i type="logical" name="LMONO"> F  </i>
    <i type="int" name="IDIPOL">     0</i>
    <i name="EPSILON">      1.00000000</i>
    <v name="DIPOL">   -100.00000000   -100.00000000   -100.00000000</v>
    <i name="EFIELD">      0.00000000</i>
   </separator>
  </separator>
  <separator name="grids" >
   <i type="int" name="NGX">    36</i>
   <i type="int" name="NGY">    36</i>
   <i type="int" name="NGZ">    60</i>
   <i type="int" name="NGXF">    72</i>
   <i type="int" name="NGYF">    72</i>
   <i type="int" name="NGZF">   120</i>
   <i type="logical" name="ADDGRID"> F  </i>
  </separator>
  <separator name="ionic" >
   <i type="int" name="NSW">     1</i>
   <i type="int" name="IBRION">     2</i>
   <i type="int" name="MDALGO">     0</i>
   <i type="int" name="ISIF">     3</i>
   <i name="PSTRESS">      0.00000000</i>
   <i name="EDIFFG">     -0.00100000</i>
   <i type="int" name="NFREE">     1</i>
   <i name="POTIM">      0.01000000</i>
   <i name="SMASS">     -3.00000000</i>
   <i name="SCALEE">      1.00000000</i>
  </separator>
  <separator name="ionic md" >
   <i name="TEBEG">      0.00010000</i>
   <i name="TEEND">      0.00010000</i>
   <i type="int" name="NBLOCK">     1</i>
   <i type="int" name="KBLOCK">     1</i>
   <i type="int" name="NPACO">   256</i>
   <i name="APACO">     16.00000000</i>
  </separator>
  <separator name="symmetry" >
   <i type="int" name="ISYM">     2</i>
   <i name="SYMPREC">      0.00001000</i>
  </separator>
  <separator name="dos" >
   <i type="int" name="LORBIT">     0</i>
   <v name="RWIGS">     -1.00000000     -1.00000000</v>
   <i type="int" name="NEDOS">   301</i>
   <i name="EMIN">     10.00000000</i>
   <i name="EMAX">    -10.00000000</i>
   <i name="EFERMI">      0.00000000</i>
  </separator>
  <separator name="writing" >
   <i type="int" name="NWRITE">     2</i>
   <i type="logical" name="LWAVE"> T  </i>
   <i type="logical" name="LDOWNSAMPLE"> F  </i>
   <i type="logical" name="LCHARG"> T  </i>
   <i type="logical" name="LPARD"> F  </i>
   <i type="logical" name="LVTOT"> F  </i>
   <i type="logical" name="LVHAR"> F  </i>
   <i type="logical" name="LELF"> F  </i>
   <i type="logical" name="LOPTICS"> F  </i>
   <v name="STM">      0.00000000      0.00000000      0.00000000      0.00000000      0.00000000      0.00000000      0.00000000</v>
  </separator>
  <separator name="performance" >
   <i type="int" name="NPAR">    12</i>
   <i type="int" name="NSIM">     4</i>
   <i type="int" name="NBLK">    -1</i>
   <i type="logical" name="LPLANE"> T  </i>
   <i type="logical" name="LSCALAPACK"> T  </i>
   <i type="logical" name="LSCAAWARE"> F  </i>
   <i type="logical" name="LSCALU"> F  </i>
   <i type="logical" name="LASYNC"> F  </i>
   <i type="logical" name="LORBITALREAL"> F  </i>
  </separator>
  <separator name="miscellaneous" >
   <i type="int" name="IDIOT">     3</i>
   <i type="int" name="ISPECIAL">     0</i>
   <i type="logical" name="LMUSIC"> F  </i>
   <v name="POMASS">     10.81100000     12.01100000</v>
   <v name="DARWINR">      0.00000000      0.00000000</v>
   <v name="DARWINV">      1.00000000      1.00000000</v>
   <i type="logical" name="LCORR"> T  </i>
  </separator>
  <i type="logical" name="GGA_COMPAT"> T  </i>
  <i type="logical" name="LBERRY"> F  </i>
  <i type="int" name="ICORELEVEL">     0</i>
  <i type="logical" name="LDAU"> F  </i>
  <i type="int" name="I_CONSTRAINED_M">     0</i>
  <separator name="electronic exchange-correlation" >
   <i type="string" name="GGA">--</i>
   <i type="int" name="VOSKOWN">     0</i>
   <i type="logical" name="LHFCALC"> F  </i>
   <i type="string" name="PRECFOCK"></i>
   <i type="logical" name="LSYMGRAD"> F  </i>
   <i type="logical" name="LHFONE"> F  </i>
   <i type="logical" name="LRHFCALC"> F  </i>
   <i type="logical" name="LTHOMAS"> F  </i>
   <i type="logical" name="LMODELHF"> F  </i>
   <i name="ENCUT4O">     -1.00000000</i>
   <i type="int" name="EXXOEP">     0</i>
   <i type="int" name="FOURORBIT">     0</i>
   <i name="AEXX">      0.00000000</i>
   <i name="HFALPHA">      0.00000000</i>
   <i name="MCALPHA">      0.00000000</i>
   <i name="ALDAX">      1.00000000</i>
   <i name="AGGAX">      1.00000000</i>
   <i name="ALDAC">      1.00000000</i>
   <i name="AGGAC">      1.00000000</i>
   <i type="int" name="NKREDX">     1</i>
   <i type="int" name="NKREDY">     1</i>
   <i type="int" name="NKREDZ">     1</i>
   <i type="logical" name="SHIFTRED"> F  </i>
   <i type="logical" name="ODDONLY"> F  </i>
   <i type="logical" name="EVENONLY"> F  </i>
   <i type="int" name="LMAXFOCK">     0</i>
   <i type="int" name="NMAXFOCKAE">     0</i>
   <i type="logical" name="LFOCKAEDFT"> F  </i>
   <i name="HFSCREEN">      0.00000000</i>
   <i name="HFSCREENC">      0.00000000</i>
   <i type="int" name="NBANDSGWLOW">     0</i>
  </separator>
  <separator name="vdW DFT" >
   <i type="logical" name="LUSE_VDW"> F  </i>
   <i name="Zab_VDW">     -0.84910000</i>
   <i name="PARAM1">      0.12340000</i>
   <i name="PARAM2">      1.00000000</i>
   <i name="PARAM3">      0.00000000</i>
  </separator>
  <separator name="model GW" >
   <i type="int" name="MODEL_GW">     0</i>
   <i name="MODEL_EPS0">     14.81501129</i>
   <i name="MODEL_ALPHA">      1.00000000</i>
  </separator>
  <separator name="linear response parameters" >
   <i type="logical" name="LEPSILON"> F  </i>
   <i type="logical" name="LRPA"> F  </i>
   <i type="logical" name="LNABLA"> F  </i>
   <i type="logical" name="LVEL"> F  </i>
   <i type="int" name="KINTER">     0</i>
   <i name="CSHIFT">      0.10000000</i>
   <i name="OMEGAMAX">     -1.00000000</i>
   <i name="DEG_THRESHOLD">      0.00200000</i>
   <i name="RTIME">     -0.10000000</i>
   <i name="WPLASMAI">      0.00000000</i>
   <v name="DFIELD">      0.00000000      0.00000000      0.00000000</v>
   <v name="WPLASMA">      0.00000000      0.00000000      0.00000000      0.00000000      0.00000000      0.00000000      0.00000000      0.00000000      0.00000000</v>
  </separator>
  <separator name="orbital magnetization" >
   <i type="logical" name="NUCIND"> F  </i>
   <v name="MAGPOS">      0.00000000      0.00000000      0.00000000</v>
   <i type="logical" name="LNICSALL"> T  </i>
   <i type="logical" name="ORBITALMAG"> F  </i>
   <i type="logical" name="LMAGBLOCH"> F  </i>
   <i type="logical" name="LCHIMAG"> F  </i>
   <i type="logical" name="LGAUGE"> T  </i>
   <i type="int" name="MAGATOM">     0</i>
   <v name="MAGDIPOL">      0.00000000      0.00000000      0.00000000</v>
   <v name="AVECCONST">      0.00000000      0.00000000      0.00000000</v>
  </separator>
  <separator name="response functions" >
   <i type="logical" name="LADDER"> F  </i>
   <i type="logical" name="LRPAFORCE"> F  </i>
   <i type="logical" name="LFXC"> F  </i>
   <i type="logical" name="LHARTREE"> T  </i>
   <i type="int" name="IBSE">     0</i>
   <v type="int" name="KPOINT">    -1     0     0     0</v>
   <i type="logical" name="LTCTE"> F  </i>
   <i type="logical" name="LTETE"> F  </i>
   <i type="logical" name="LTRIPLET"> F  </i>
   <i type="logical" name="LFXCEPS"> F  </i>
   <i type="logical" name="LFXHEG"> F  </i>
   <i type="int" name="NATURALO">     2</i>
   <i type="logical" name="L2ORDER"> F  </i>
   <i type="logical" name="LMP2LT"> F  </i>
   <i type="logical" name="LUSEW"> F  </i>
   <i name="ENCUTGW">     -2.00000000</i>
   <i name="ENCUTGWSOFT">     -2.00000000</i>
   <i name="ENCUTLF">     -1.00000000</i>
   <i type="int" name="LMAXMP2">    -1</i>
   <i name="SCISSOR">      0.00000000</i>
   <i type="int" name="NOMEGA">     0</i>
   <i type="int" name="NOMEGAR">     0</i>
   <i type="int" name="NBANDSGW">    -1</i>
   <i type="int" name="NBANDSO">    -1</i>
   <i type="int" name="NBANDSV">    -1</i>
   <i type="int" name="NELM">   200</i>
   <i type="int" name="NELMHF">     1</i>
   <i type="int" name="DIM">     3</i>
   <i type="int" name="ANTIRES">     0</i>
   <i name="OMEGAMAX">    -30.00000000</i>
   <i name="OMEGAMIN">    -30.00000000</i>
   <i name="OMEGATL">   -200.00000000</i>
   <i type="int" name="OMEGAGRID">   140</i>
   <i name="CSHIFT">     -0.10000000</i>
   <i type="logical" name="SELFENERGY"> F  </i>
   <i type="logical" name="LSPECTRAL"> F  </i>
   <i type="logical" name="LSPECTRALGW"> F  </i>
   <i type="logical" name="LSINGLES"> F  </i>
   <i type="logical" name="LFERMIGW"> F  </i>
   <i type="logical" name="ODDONLYGW"> F  </i>
   <i type="logical" name="EVENONLYGW"> F  </i>
   <i type="int" name="NKREDLFX">     1</i>
   <i type="int" name="NKREDLFY">     1</i>
   <i type="int" name="NKREDLFZ">     1</i>
   <i type="int" name="MAXMEM">  2800</i>
   <i type="int" name="TELESCOPE">     0</i>
   <i type="int" name="TAUPAR">     1</i>
   <i type="int" name="OMEGAPAR">    -1</i>
   <i name="LAMBDA">      1.00000000</i>
  </separator>
  <separator name="External order field" >
   <i name="OFIELD_KAPPA">      0.00000000</i>
   <v name="OFIELD_K">      0.00000000      0.00000000      0.00000000</v>
   <i name="OFIELD_Q6_NEAR">      0.00000000</i>
   <i name="OFIELD_Q6_FAR">      0.00000000</i>
   <i name="OFIELD_A">      0.00000000</i>
  </separator>
 </parameters>
 <atominfo>
  <atoms>       8 </atoms>
  <types>       2 </types>
  <array name="atoms" >
   <dimension dim="1">ion</dimension>
   <field type="string">element</field>
   <field type="int">atomtype</field>
   <set>
    <rc><c>B </c><c>   1</c></rc>
    <rc><c>B </c><c>   1</c></rc>
    <rc><c>C </c><c>   2</c></rc>
    <rc><c>C </c><c>   2</c></rc>
    <rc><c>C </c><c>   2</c></rc>
    <rc><c>C </c><c>   2</c></rc>
    <rc><c>C </c><c>   2</c></rc>
    <rc><c>C </c><c>   2</c></rc>
   </set>
  </array>
  <array name="atomtypes" >
   <dimension dim="1">type</dimension>
   <field type="int">atomspertype</field>
   <field type="string">element</field>
   <field>mass</field>
   <field>valence</field>
   <field type="string">pseudopotential</field>
   <set>
    <rc><c>   2</c><c>B </c><c>     10.81100000</c><c>      3.00000000</c><c>  PAW_PBE B 06Sep2000                   </c></rc>
    <rc><c>   6</c><c>C </c><c>     12.01100000</c><c>      4.00000000</c><c>  PAW_PBE C 08Apr2002                   </c></rc>
   </set>
  </array>
 </atominfo>
 <structure name="initialpos" >
  <crystal>
   <varray name="basis" >
    <v>       4.48084843       2.58701885       0.00000000 </v>
    <v>      -4.48084843       2.58701885       0.00000000 </v>
    <v>       0.00000000       0.00000000       8.52022140 </v>
   </varray>
   <i name="volume">    197.53348383 </i>
   <varray name="rec_basis" >
    <v>       0.11158601       0.19327265       0.00000000 </v>
    <v>      -0.11158601       0.19327265       0.00000000 </v>
    <v>       0.00000000       0.00000000       0.11736784 </v>
   </varray>
  </crystal>
  <varray name="positions" >
   <v>       0.33333300       0.66666600       0.25000000 </v>
   <v>       0.66666600       0.33333300       0.25000000 </v>
   <v>       0.15869124       0.31738348       0.25000000 </v>
   <v>       0.31738348       0.15869124       0.25000000 </v>
   <v>       0.15869124       0.84130776       0.25000000 </v>
   <v>       0.84130776       0.15869124       0.25000000 </v>
   <v>       0.68261552       0.84130776       0.25000000 </v>
   <v>       0.84130776       0.68261552       0.25000000 </v>
  </varray>
 </structure>
 <calculation>
  <scstep>
   <time name="dav">    0.58    0.58</time>
   <time name="total">    0.61    0.61</time>
   <energy>
    <i name="alphaZ">     25.67921176 </i>
    <i name="ewald">    700.27145080 </i>
    <i name="hartreedc">  -1524.76618073 </i>
    <i name="XCdc">     91.14273073 </i>
    <i name="pawpsdc">    738.13200929 </i>
    <i name="pawaedc">   -739.83780425 </i>
    <i name="eentropy">     -0.00390456 </i>
    <i name="bandstr">   -156.35471813 </i>
    <i name="atom">   1025.20389953 </i>
    <i name="e_fr_energy">    159.46669443 </i>
    <i name="e_wo_entrp">    159.47059899 </i>
    <i name="e_0_energy">    159.46864671 </i>
   </energy>
  </scstep>
  <scstep>
   <time name="dav">    0.69    0.69</time>
   <time name="total">    0.69    0.69</time>
   <energy>
    <i name="e_fr_energy">    -54.86022317 </i>
    <i name="e_wo_entrp">    -54.86022317 </i>
    <i name="e_0_energy">    -54.86022317 </i>
   </energy>
  </scstep>
  <scstep>
   <time name="dav">    0.73    0.73</time>
   <time name="total">    0.73    0.73</time>
   <energy>
    <i name="e_fr_energy">    -73.12089610 </i>
    <i name="e_wo_entrp">    -73.12089610 </i>
    <i name="e_0_energy">    -73.12089610 </i>
   </energy>
  </scstep>
  <scstep>
   <time name="dav">    0.72    0.72</time>
   <time name="total">    0.72    0.72</time>
   <energy>
    <i name="e_fr_energy">    -73.42977548 </i>
    <i name="e_wo_entrp">    -73.42977548 </i>
    <i name="e_0_energy">    -73.42977548 </i>
   </energy>
  </scstep>
  <scstep>
   <time name="dav">    0.72    0.72</time>
   <time name="total">    0.78    0.78</time>
   <energy>
    <i name="e_fr_energy">    -73.44016542 </i>
    <i name="e_wo_entrp">    -73.44016542 </i>
    <i name="e_0_energy">    -73.44016542 </i>
   </energy>
  </scstep>
  <scstep>
   <time name="dav">    0.69    0.69</time>
   <time name="total">    0.78    0.78</time>
   <energy>
    <i name="e_fr_energy">    -68.98511693 </i>
    <i name="e_wo_entrp">    -68.98511693 </i>
    <i name="e_0_energy">    -68.98511693 </i>
   </energy>
  </scstep>
  <scstep>
   <time name="dav">    0.71    0.71</time>
   <time name="total">    0.80    0.80</time>
   <energy>
    <i name="e_fr_energy">    -67.34198385 </i>
    <i name="e_wo_entrp">    -67.34198385 </i>
    <i name="e_0_energy">    -67.34198385 </i>
   </energy>
  </scstep>
  <scstep>
   <time name="dav">    0.67    0.67</time>
   <time name="total">    0.76    0.76</time>
   <energy>
    <i name="e_fr_energy">    -67.24646651 </i>
    <i name="e_wo_entrp">    -67.24646651 </i>
    <i name="e_0_energy">    -67.24646651 </i>
   </energy>
  </scstep>
  <scstep>
   <time name="dav">    0.70    0.70</time>
   <time name="total">    0.79    0.79</time>
   <energy>
    <i name="e_fr_energy">    -67.22273198 </i>
    <i name="e_wo_entrp">    -67.22273198 </i>
    <i name="e_0_energy">    -67.22273198 </i>
   </energy>
  </scstep>
  <scstep>
   <time name="dav">    0.72    0.72</time>
   <time name="total">    0.81    0.81</time>
   <energy>
    <i name="e_fr_energy">    -67.21788146 </i>
    <i name="e_wo_entrp">    -67.21788146 </i>
    <i name="e_0_energy">    -67.21788146 </i>
   </energy>
  </scstep>
  <scstep>
   <time name="dav">    0.58    0.58</time>
   <time name="total">    0.67    0.67</time>
   <energy>
    <i name="e_fr_energy">    -67.22348927 </i>
    <i name="e_wo_entrp">    -67.22348927 </i>
    <i name="e_0_energy">    -67.22348927 </i>
   </energy>
  </scstep>
  <scstep>
   <time name="dav">    0.59    0.59</time>
   <time name="total">    0.67    0.67</time>
   <energy>
    <i name="e_fr_energy">    -67.22670516 </i>
    <i name="e_wo_entrp">    -67.22670516 </i>
    <i name="e_0_energy">    -67.22670516 </i>
   </energy>
  </scstep>
  <scstep>
   <time name="dav">    0.59    0.59</time>
   <time name="total">    0.68    0.68</time>
   <energy>
    <i name="e_fr_energy">    -67.22756024 </i>
    <i name="e_wo_entrp">    -67.22756024 </i>
    <i name="e_0_energy">    -67.22756024 </i>
   </energy>
  </scstep>
  <scstep>
   <time name="dav">    0.66    0.66</time>
   <time name="total">    0.75    0.75</time>
   <energy>
    <i name="e_fr_energy">    -67.22770899 </i>
    <i name="e_wo_entrp">    -67.22770899 </i>
    <i name="e_0_energy">    -67.22770899 </i>
   </energy>
  </scstep>
  <scstep>
   <time name="dav">    0.65    0.65</time>
   <time name="total">    0.74    0.74</time>
   <energy>
    <i name="e_fr_energy">    -67.22772579 </i>
    <i name="e_wo_entrp">    -67.22772579 </i>
    <i name="e_0_energy">    -67.22772579 </i>
   </energy>
  </scstep>
  <scstep>
   <time name="dav">    0.51    0.51</time>
   <time name="total">    0.60    0.60</time>
   <energy>
    <i name="e_fr_energy">    -67.22772996 </i>
    <i name="e_wo_entrp">    -67.22772996 </i>
    <i name="e_0_energy">    -67.22772996 </i>
   </energy>
  </scstep>
  <scstep>
   <time name="dav">    0.63    0.63</time>
   <time name="total">    0.66    0.66</time>
   <energy>
    <i name="alphaZ">     25.67921176 </i>
    <i name="ewald">    700.27145080 </i>
    <i name="hartreedc">  -1646.75287948 </i>
    <i name="XCdc">     96.02425699 </i>
    <i name="pawpsdc">   2894.38858726 </i>
    <i name="pawaedc">  -2896.91580043 </i>
    <i name="eentropy">     -0.00000000 </i>
    <i name="bandstr">   -265.12645665 </i>
    <i name="atom">   1025.20389953 </i>
    <i name="e_fr_energy">    -67.22773023 </i>
    <i name="e_wo_entrp">    -67.22773023 </i>
    <i name="e_0_energy">    -67.22773023 </i>
   </energy>
  </scstep>
  <structure>
   <crystal>
    <varray name="basis" >
     <v>       4.48084843       2.58701885       0.00000000 </v>
     <v>      -4.48084843       2.58701885       0.00000000 </v>
     <v>       0.00000000       0.00000000       8.52022140 </v>
    </varray>
    <i name="volume">    197.53348383 </i>
    <varray name="rec_basis" >
     <v>       0.11158601       0.19327265       0.00000000 </v>
     <v>      -0.11158601       0.19327265       0.00000000 </v>
     <v>       0.00000000       0.00000000       0.11736784 </v>
    </varray>
   </crystal>
   <varray name="positions" >
    <v>       0.33333300       0.66666600       0.25000000 </v>
    <v>       0.66666600       0.33333300       0.25000000 </v>
    <v>       0.15869124       0.31738348       0.25000000 </v>
    <v>       0.31738348       0.15869124       0.25000000 </v>
    <v>       0.15869124       0.84130776       0.25000000 </v>
    <v>       0.84130776       0.15869124       0.25000000 </v>
    <v>       0.68261552       0.84130776       0.25000000 </v>
    <v>       0.84130776       0.68261552       0.25000000 </v>
   </varray>
  </structure>
  <varray name="forces" >
   <v>       0.00000000      -0.00000000       0.00000000 </v>
   <v>       0.00000000      -0.00000000       0.00000000 </v>
   <v>      -0.00065277       0.00113063      -0.00000000 </v>
   <v>       0.00065277       0.00113063      -0.00000000 </v>
   <v>       0.00130554      -0.00000000       0.00000000 </v>
   <v>      -0.00130554      -0.00000000       0.00000000 </v>
   <v>      -0.00065277      -0.00113063       0.00000000 </v>
   <v>       0.00065277      -0.00113063       0.00000000 </v>
  </varray>
  <varray name="stress" >
   <v>      -0.53247448       0.00000000      -0.00000000 </v>
   <v>       0.00000000      -0.53247440       0.00000000 </v>
   <v>      -0.00000000       0.00000000      -1.27162318 </v>
  </varray>
  <energy>
   <i name="e_fr_energy">    -67.22773023 </i>
   <i name="e_wo_entrp">    -67.22773023 </i>
   <i name="e_0_energy">     -0.00000000 </i>
  </energy>
  <time name="totalsc">   13.88   14.91</time>
  <eigenvalues>
   <array>
    <dimension dim="1">band</dimension>
    <dimension dim="2">kpoint</dimension>
    <dimension dim="3">spin</dimension>
    <field>eigene</field>
    <field>occ</field>
    <set>
     <set comment="spin 1">
      <set comment="kpoint 1">
       <r>  -18.5403    1.0000 </r>
       <r>  -14.6488    1.0000 </r>
       <r>  -14.6488    1.0000 </r>
       <r>  -12.2992    1.0000 </r>
       <r>  -12.2992    1.0000 </r>
       <r>  -11.2307    1.0000 </r>
       <r>   -9.9135    1.0000 </r>
       <r>   -7.3452    1.0000 </r>
       <r>   -7.1249    1.0000 </r>
       <r>   -4.9710    1.0000 </r>
       <r>   -4.9710    1.0000 </r>
       <r>   -3.1493    1.0000 </r>
       <r>   -3.1492    1.0000 </r>
       <r>   -2.4667    1.0000 </r>
       <r>   -2.4666    1.0000 </r>
       <r>   -0.6315    0.0000 </r>
       <r>    1.1011    0.0000 </r>
       <r>    1.1012    0.0000 </r>
       <r>    1.7906    0.0000 </r>
       <r>    1.9206    0.0000 </r>
       <r>    4.5206    0.0000 </r>
       <r>    5.9105    0.0000 </r>
       <r>    6.3151    0.0000 </r>
       <r>    6.3151    0.0000 </r>
      </set>
      <set comment="kpoint 2">
       <r>  -18.5132    1.0000 </r>
       <r>  -14.7809    1.0000 </r>
       <r>  -14.6912    1.0000 </r>
       <r>  -12.3384    1.0000 </r>
       <r>  -12.2008    1.0000 </r>
       <r>  -11.0961    1.0000 </r>
       <r>   -9.7531    1.0000 </r>
       <r>   -7.3040    1.0000 </r>
       <r>   -7.1822    1.0000 </r>
       <r>   -5.0944    1.0000 </r>
       <r>   -4.9934    1.0000 </r>
       <r>   -3.2738    1.0000 </r>
       <r>   -3.1697    1.0000 </r>
       <r>   -2.6092    1.0000 </r>
       <r>   -2.5354    1.0000 </r>
       <r>   -0.8361    0.0000 </r>
       <r>    1.1605    0.0000 </r>
       <r>    1.4116    0.0000 </r>
       <r>    1.9153    0.0000 </r>
       <r>    1.9723    0.0000 </r>
       <r>    4.5728    0.0000 </r>
       <r>    5.9667    0.0000 </r>
       <r>    6.3866    0.0000 </r>
       <r>    6.4781    0.0000 </r>
      </set>
      <set comment="kpoint 3">
       <r>  -18.4342    1.0000 </r>
       <r>  -15.1059    1.0000 </r>
       <r>  -14.7954    1.0000 </r>
       <r>  -12.4549    1.0000 </r>
       <r>  -11.9317    1.0000 </r>
       <r>  -10.7149    1.0000 </r>
       <r>   -9.3237    1.0000 </r>
       <r>   -7.3645    1.0000 </r>
       <r>   -7.1816    1.0000 </r>
       <r>   -5.4404    1.0000 </r>
       <r>   -5.0296    1.0000 </r>
       <r>   -3.6157    1.0000 </r>
       <r>   -3.2240    1.0000 </r>
       <r>   -3.0165    1.0000 </r>
       <r>   -2.7272    1.0000 </r>
       <r>   -1.1839    0.0000 </r>
       <r>    1.3238    0.0000 </r>
       <r>    1.8881    0.0000 </r>
       <r>    2.1271    0.0000 </r>
       <r>    2.4358    0.0000 </r>
       <r>    4.7294    0.0000 </r>
       <r>    6.1216    0.0000 </r>
       <r>    6.5550    0.0000 </r>
       <r>    6.9590    0.0000 </r>
      </set>
      <set comment="kpoint 4">
       <r>  -18.3111    1.0000 </r>
       <r>  -15.5025    1.0000 </r>
       <r>  -14.9178    1.0000 </r>
       <r>  -12.6026    1.0000 </r>
       <r>  -11.5471    1.0000 </r>
       <r>  -10.1724    1.0000 </r>
       <r>   -8.7139    1.0000 </r>
       <r>   -7.6782    1.0000 </r>
       <r>   -6.9823    1.0000 </r>
       <r>   -5.9473    1.0000 </r>
       <r>   -5.0207    1.0000 </r>
       <r>   -4.0930    1.0000 </r>
       <r>   -3.6340    1.0000 </r>
       <r>   -3.2941    1.0000 </r>
       <r>   -3.0028    1.0000 </r>
       <r>   -1.4707    0.0000 </r>
       <r>    1.5522    0.0000 </r>
       <r>    2.2445    0.0000 </r>
       <r>    2.3839    0.0000 </r>
       <r>    3.3190    0.0000 </r>
       <r>    4.9927    0.0000 </r>
       <r>    6.0201    0.0000 </r>
       <r>    6.3563    0.0000 </r>
       <r>    6.7507    0.0000 </r>
      </set>
      <set comment="kpoint 5">
       <r>  -18.1625    1.0000 </r>
       <r>  -15.8797    1.0000 </r>
       <r>  -15.0239    1.0000 </r>
       <r>  -12.7316    1.0000 </r>
       <r>  -11.1092    1.0000 </r>
       <r>   -9.5491    1.0000 </r>
       <r>   -8.0852    1.0000 </r>
       <r>   -8.0108    1.0000 </r>
       <r>   -6.7177    1.0000 </r>
       <r>   -6.5247    1.0000 </r>
       <r>   -4.9417    1.0000 </r>
       <r>   -4.6103    1.0000 </r>
       <r>   -4.3954    1.0000 </r>
       <r>   -3.3602    1.0000 </r>
       <r>   -3.3072    1.0000 </r>
       <r>   -1.6689    0.0000 </r>
       <r>    1.7888    0.0000 </r>
       <r>    2.5685    0.0000 </r>
       <r>    2.7419    0.0000 </r>
       <r>    4.2903    0.0000 </r>
       <r>    5.1728    0.0000 </r>
       <r>    5.3722    0.0000 </r>
       <r>    6.6285    0.0000 </r>
       <r>    6.9209    0.0000 </r>
      </set>
      <set comment="kpoint 6">
       <r>  -18.0272    1.0000 </r>
       <r>  -16.1629    1.0000 </r>
       <r>  -15.0939    1.0000 </r>
       <r>  -12.8160    1.0000 </r>
       <r>  -10.7080    1.0000 </r>
       <r>   -8.9042    1.0000 </r>
       <r>   -8.4816    1.0000 </r>
       <r>   -7.5745    1.0000 </r>
       <r>   -6.7929    1.0000 </r>
       <r>   -6.4253    1.0000 </r>
       <r>   -5.2343    1.0000 </r>
       <r>   -5.0733    1.0000 </r>
       <r>   -4.8255    1.0000 </r>
       <r>   -3.5685    1.0000 </r>
       <r>   -3.4063    1.0000 </r>
       <r>   -1.7847    0.0000 </r>
       <r>    1.9692    0.0000 </r>
       <r>    2.8120    0.0000 </r>
       <r>    3.2006    0.0000 </r>
       <r>    4.4174    0.0000 </r>
       <r>    5.2007    0.0000 </r>
       <r>    5.8937    0.0000 </r>
       <r>    6.7443    0.0000 </r>
       <r>    6.7971    0.0000 </r>
      </set>
      <set comment="kpoint 7">
       <r>  -17.9687    1.0000 </r>
       <r>  -16.2722    1.0000 </r>
       <r>  -15.1182    1.0000 </r>
       <r>  -12.8452    1.0000 </r>
       <r>  -10.5233    1.0000 </r>
       <r>   -8.6674    1.0000 </r>
       <r>   -8.4603    1.0000 </r>
       <r>   -7.8540    1.0000 </r>
       <r>   -6.2579    1.0000 </r>
       <r>   -6.2284    1.0000 </r>
       <r>   -5.9752    1.0000 </r>
       <r>   -5.3004    1.0000 </r>
       <r>   -4.7629    1.0000 </r>
       <r>   -3.6806    1.0000 </r>
       <r>   -3.4227    1.0000 </r>
       <r>   -1.8228    0.0000 </r>
       <r>    2.0369    0.0000 </r>
       <r>    2.9042    0.0000 </r>
       <r>    3.7576    0.0000 </r>
       <r>    3.7611    0.0000 </r>
       <r>    5.8295    0.0000 </r>
       <r>    6.0177    0.0000 </r>
       <r>    6.6833    0.0000 </r>
       <r>    6.8322    0.0000 </r>
      </set>
      <set comment="kpoint 8">
       <r>  -18.4601    1.0000 </r>
       <r>  -14.9943    1.0000 </r>
       <r>  -14.7809    1.0000 </r>
       <r>  -12.3670    1.0000 </r>
       <r>  -12.0744    1.0000 </r>
       <r>  -10.8255    1.0000 </r>
       <r>   -9.4616    1.0000 </r>
       <r>   -7.3045    1.0000 </r>
       <r>   -7.2222    1.0000 </r>
       <r>   -5.3045    1.0000 </r>
       <r>   -5.0454    1.0000 </r>
       <r>   -3.4865    1.0000 </r>
       <r>   -3.2340    1.0000 </r>
       <r>   -2.8750    1.0000 </r>
       <r>   -2.6748    1.0000 </r>
       <r>   -1.0765    0.0000 </r>
       <r>    1.1928    0.0000 </r>
       <r>    1.9201    0.0000 </r>
       <r>    2.0756    0.0000 </r>
       <r>    2.1721    0.0000 </r>
       <r>    4.6770    0.0000 </r>
       <r>    6.0751    0.0000 </r>
       <r>    6.5379    0.0000 </r>
       <r>    6.7516    0.0000 </r>
      </set>
      <set comment="kpoint 9">
       <r>  -18.3587    1.0000 </r>
       <r>  -15.3297    1.0000 </r>
       <r>  -14.9244    1.0000 </r>
       <r>  -12.4374    1.0000 </r>
       <r>  -11.8221    1.0000 </r>
       <r>  -10.3336    1.0000 </r>
       <r>   -8.9537    1.0000 </r>
       <r>   -7.5669    1.0000 </r>
       <r>   -7.0611    1.0000 </r>
       <r>   -5.6745    1.0000 </r>
       <r>   -5.1027    1.0000 </r>
       <r>   -3.8636    1.0000 </r>
       <r>   -3.3655    1.0000 </r>
       <r>   -3.3565    1.0000 </r>
       <r>   -2.9300    1.0000 </r>
       <r>   -1.3035    0.0000 </r>
       <r>    1.2600    0.0000 </r>
       <r>    2.2814    0.0000 </r>
       <r>    2.4279    0.0000 </r>
       <r>    2.8510    0.0000 </r>
       <r>    4.8861    0.0000 </r>
       <r>    6.2783    0.0000 </r>
       <r>    6.5070    0.0000 </r>
       <r>    6.7722    0.0000 </r>
      </set>
      <set comment="kpoint 10">
       <r>  -18.2216    1.0000 </r>
       <r>  -15.7004    1.0000 </r>
       <r>  -15.0617    1.0000 </r>
       <r>  -12.5469    1.0000 </r>
       <r>  -11.4382    1.0000 </r>
       <r>   -9.7295    1.0000 </r>
       <r>   -8.3073    1.0000 </r>
       <r>   -7.9560    1.0000 </r>
       <r>   -6.8281    1.0000 </r>
       <r>   -6.1688    1.0000 </r>
       <r>   -5.0887    1.0000 </r>
       <r>   -4.3446    1.0000 </r>
       <r>   -4.0291    1.0000 </r>
       <r>   -3.4802    1.0000 </r>
       <r>   -3.2435    1.0000 </r>
       <r>   -1.4533    0.0000 </r>
       <r>    1.3910    0.0000 </r>
       <r>    2.5889    0.0000 </r>
       <r>    2.8067    0.0000 </r>
       <r>    3.7951    0.0000 </r>
       <r>    5.2029    0.0000 </r>
       <r>    5.6241    0.0000 </r>
       <r>    6.5549    0.0000 </r>
       <r>    6.7668    0.0000 </r>
      </set>
      <set comment="kpoint 11">
       <r>  -18.0756    1.0000 </r>
       <r>  -16.0252    1.0000 </r>
       <r>  -15.1634    1.0000 </r>
       <r>  -12.6404    1.0000 </r>
       <r>  -11.0116    1.0000 </r>
       <r>   -9.0961    1.0000 </r>
       <r>   -8.3956    1.0000 </r>
       <r>   -7.6306    1.0000 </r>
       <r>   -6.6685    1.0000 </r>
       <r>   -6.5435    1.0000 </r>
       <r>   -5.0399    1.0000 </r>
       <r>   -4.8339    1.0000 </r>
       <r>   -4.7659    1.0000 </r>
       <r>   -3.5742    1.0000 </r>
       <r>   -3.5495    1.0000 </r>
       <r>   -1.5440    0.0000 </r>
       <r>    1.5375    0.0000 </r>
       <r>    2.9973    0.0000 </r>
       <r>    3.1243    0.0000 </r>
       <r>    4.7554    0.0000 </r>
       <r>    4.8217    0.0000 </r>
       <r>    5.6421    0.0000 </r>
       <r>    6.5794    0.0000 </r>
       <r>    6.9190    0.0000 </r>
      </set>
      <set comment="kpoint 12">
       <r>  -17.9725    1.0000 </r>
       <r>  -16.2237    1.0000 </r>
       <r>  -15.2167    1.0000 </r>
       <r>  -12.6918    1.0000 </r>
       <r>  -10.6841    1.0000 </r>
       <r>   -8.8037    1.0000 </r>
       <r>   -8.4393    1.0000 </r>
       <r>   -7.5709    1.0000 </r>
       <r>   -6.4910    1.0000 </r>
       <r>   -6.2836    1.0000 </r>
       <r>   -5.6651    1.0000 </r>
       <r>   -5.2067    1.0000 </r>
       <r>   -4.8631    1.0000 </r>
       <r>   -3.7590    1.0000 </r>
       <r>   -3.6241    1.0000 </r>
       <r>   -1.5880    0.0000 </r>
       <r>    1.6337    0.0000 </r>
       <r>    3.3120    0.0000 </r>
       <r>    3.5061    0.0000 </r>
       <r>    4.1147    0.0000 </r>
       <r>    5.5886    0.0000 </r>
       <r>    6.1336    0.0000 </r>
       <r>    6.4940    0.0000 </r>
       <r>    6.5321    0.0000 </r>
      </set>
      <set comment="kpoint 13">
       <r>  -18.2423    1.0000 </r>
       <r>  -15.5947    1.0000 </r>
       <r>  -15.1334    1.0000 </r>
       <r>  -12.3267    1.0000 </r>
       <r>  -11.7182    1.0000 </r>
       <r>   -9.7514    1.0000 </r>
       <r>   -8.4235    1.0000 </r>
       <r>   -7.9297    1.0000 </r>
       <r>   -6.8657    1.0000 </r>
       <r>   -5.9215    1.0000 </r>
       <r>   -5.2465    1.0000 </r>
       <r>   -4.1761    1.0000 </r>
       <r>   -3.8606    1.0000 </r>
       <r>   -3.6321    1.0000 </r>
       <r>   -3.2639    1.0000 </r>
       <r>   -1.2839    0.0000 </r>
       <r>    1.1312    0.0000 </r>
       <r>    2.5379    0.0000 </r>
       <r>    3.2335    0.0000 </r>
       <r>    3.3406    0.0000 </r>
       <r>    5.1458    0.0000 </r>
       <r>    6.1556    0.0000 </r>
       <r>    6.1835    0.0000 </r>
       <r>    6.5488    0.0000 </r>
      </set>
      <set comment="kpoint 14">
       <r>  -18.1037    1.0000 </r>
       <r>  -15.8717    1.0000 </r>
       <r>  -15.3171    1.0000 </r>
       <r>  -12.2968    1.0000 </r>
       <r>  -11.4379    1.0000 </r>
       <r>   -9.1205    1.0000 </r>
       <r>   -8.3761    1.0000 </r>
       <r>   -7.7953    1.0000 </r>
       <r>   -6.6081    1.0000 </r>
       <r>   -6.2644    1.0000 </r>
       <r>   -5.3186    1.0000 </r>
       <r>   -4.5716    1.0000 </r>
       <r>   -4.4650    1.0000 </r>
       <r>   -3.8735    1.0000 </r>
       <r>   -3.6394    1.0000 </r>
       <r>   -1.1996    0.0000 </r>
       <r>    1.0639    0.0000 </r>
       <r>    2.8959    0.0000 </r>
       <r>    3.6622    0.0000 </r>
       <r>    4.2506    0.0000 </r>
       <r>    5.3258    0.0000 </r>
       <r>    5.5089    0.0000 </r>
       <r>    5.9251    0.0000 </r>
       <r>    6.8963    0.0000 </r>
      </set>
      <set comment="kpoint 15">
       <r>  -17.9801    1.0000 </r>
       <r>  -16.0976    1.0000 </r>
       <r>  -15.4298    1.0000 </r>
       <r>  -12.3214    1.0000 </r>
       <r>  -11.0771    1.0000 </r>
       <r>   -8.9724    1.0000 </r>
       <r>   -8.3329    1.0000 </r>
       <r>   -7.2613    1.0000 </r>
       <r>   -6.5698    1.0000 </r>
       <r>   -6.3281    1.0000 </r>
       <r>   -5.4537    1.0000 </r>
       <r>   -4.9770    1.0000 </r>
       <r>   -4.9741    1.0000 </r>
       <r>   -4.0100    1.0000 </r>
       <r>   -3.9555    1.0000 </r>
       <r>   -1.1306    0.0000 </r>
       <r>    1.0489    0.0000 </r>
       <r>    3.3546    0.0000 </r>
       <r>    3.9513    0.0000 </r>
       <r>    4.5712    0.0000 </r>
       <r>    5.1717    0.0000 </r>
       <r>    5.7769    0.0000 </r>
       <r>    5.9790    0.0000 </r>
       <r>    6.7564    0.0000 </r>
      </set>
      <set comment="kpoint 16">
       <r>  -17.9277    1.0000 </r>
       <r>  -16.1875    1.0000 </r>
       <r>  -15.4670    1.0000 </r>
       <r>  -12.3351    1.0000 </r>
       <r>  -10.8914    1.0000 </r>
       <r>   -9.1568    1.0000 </r>
       <r>   -7.9544    1.0000 </r>
       <r>   -7.3553    1.0000 </r>
       <r>   -6.2381    1.0000 </r>
       <r>   -6.1730    1.0000 </r>
       <r>   -5.9419    1.0000 </r>
       <r>   -5.1767    1.0000 </r>
       <r>   -5.0349    1.0000 </r>
       <r>   -4.0904    1.0000 </r>
       <r>   -4.0533    1.0000 </r>
       <r>   -1.1062    0.0000 </r>
       <r>    1.0502    0.0000 </r>
       <r>    3.9094    0.0000 </r>
       <r>    3.9174    0.0000 </r>
       <r>    4.0594    0.0000 </r>
       <r>    5.7274    0.0000 </r>
       <r>    5.8797    0.0000 </r>
       <r>    6.0777    0.0000 </r>
       <r>    6.5091    0.0000 </r>
      </set>
      <set comment="kpoint 17">
       <r>  -17.9838    1.0000 </r>
       <r>  -15.9999    1.0000 </r>
       <r>  -15.5660    1.0000 </r>
       <r>  -12.0256    1.0000 </r>
       <r>  -11.3863    1.0000 </r>
       <r>   -9.0296    1.0000 </r>
       <r>   -8.2677    1.0000 </r>
       <r>   -7.2565    1.0000 </r>
       <r>   -6.3795    1.0000 </r>
       <r>   -6.3477    1.0000 </r>
       <r>   -5.5925    1.0000 </r>
       <r>   -4.8681    1.0000 </r>
       <r>   -4.7863    1.0000 </r>
       <r>   -4.2577    1.0000 </r>
       <r>   -4.0964    1.0000 </r>
       <r>   -0.8660    0.0000 </r>
       <r>    0.7476    0.0000 </r>
       <r>    3.3042    0.0000 </r>
       <r>    4.4814    0.0000 </r>
       <r>    4.7155    0.0000 </r>
       <r>    5.1159    0.0000 </r>
       <r>    5.1380    0.0000 </r>
       <r>    5.8980    0.0000 </r>
       <r>    6.9762    0.0000 </r>
      </set>
      <set comment="kpoint 18">
       <r>  -17.9036    1.0000 </r>
       <r>  -16.0734    1.0000 </r>
       <r>  -15.7140    1.0000 </r>
       <r>  -11.9033    1.0000 </r>
       <r>  -11.2356    1.0000 </r>
       <r>   -9.3725    1.0000 </r>
       <r>   -7.6539    1.0000 </r>
       <r>   -6.9970    1.0000 </r>
       <r>   -6.4838    1.0000 </r>
       <r>   -6.1271    1.0000 </r>
       <r>   -5.8405    1.0000 </r>
       <r>   -5.0821    1.0000 </r>
       <r>   -4.9870    1.0000 </r>
       <r>   -4.4628    1.0000 </r>
       <r>   -4.4486    1.0000 </r>
       <r>   -0.6039    0.0000 </r>
       <r>    0.5137    0.0000 </r>
       <r>    3.8129    0.0000 </r>
       <r>    4.4211    0.0000 </r>
       <r>    4.7973    0.0000 </r>
       <r>    5.0275    0.0000 </r>
       <r>    5.4990    0.0000 </r>
       <r>    6.2768    0.0000 </r>
       <r>    6.3566    0.0000 </r>
      </set>
      <set comment="kpoint 19">
       <r>  -17.8740    1.0000 </r>
       <r>  -15.9418    1.0000 </r>
       <r>  -15.9417    1.0000 </r>
       <r>  -11.5104    1.0000 </r>
       <r>  -11.5103    1.0000 </r>
       <r>   -9.5490    1.0000 </r>
       <r>   -7.0492    1.0000 </r>
       <r>   -7.0491    1.0000 </r>
       <r>   -6.6880    1.0000 </r>
       <r>   -6.0398    1.0000 </r>
       <r>   -5.9081    1.0000 </r>
       <r>   -4.8955    1.0000 </r>
       <r>   -4.8955    1.0000 </r>
       <r>   -4.8156    1.0000 </r>
       <r>   -4.8156    1.0000 </r>
       <r>   -0.0438    0.0000 </r>
       <r>   -0.0438    0.0000 </r>
       <r>    4.3554    0.0000 </r>
       <r>    4.3790    0.0000 </r>
       <r>    4.3790    0.0000 </r>
       <r>    5.5697    0.0000 </r>
       <r>    5.5697    0.0000 </r>
       <r>    5.7006    0.0000 </r>
       <r>    6.5705    0.0000 </r>
      </set>
     </set>
    </set>
   </array>
  </eigenvalues>
  <separator name="orbital magnetization" >
   <v name="MAGDIPOLOUT">      0.00000000      0.00000000      0.00000000</v>
  </separator>
  <dos>
   <i name="efermi">     -2.22089027 </i>
   <total>
    <array>
     <dimension dim="1">gridpoints</dimension>
     <dimension dim="2">spin</dimension>
     <field>energy</field>
     <field>total</field>
     <field>integrated</field>
     <set>
      <set comment="spin 1">
       <r>   -19.8162     0.0000     0.0000 </r>
       <r>   -19.7226     0.0000     0.0000 </r>
       <r>   -19.6290     0.0000     0.0000 </r>
       <r>   -19.5355     0.0000     0.0000 </r>
       <r>   -19.4419     0.0000     0.0000 </r>
       <r>   -19.3484     0.0000     0.0000 </r>
       <r>   -19.2548     0.0000     0.0000 </r>
       <r>   -19.1612     0.0000     0.0000 </r>
       <r>   -19.0677     0.0000     0.0000 </r>
       <r>   -18.9741     0.0000     0.0000 </r>
       <r>   -18.8806     0.0000     0.0000 </r>
       <r>   -18.7870     0.0000     0.0000 </r>
       <r>   -18.6934     0.0000     0.0000 </r>
       <r>   -18.5999     0.0132     0.0012 </r>
       <r>   -18.5063     0.7282     0.0694 </r>
       <r>   -18.4128     1.8684     0.2442 </r>
       <r>   -18.3192     2.1400     0.4444 </r>
       <r>   -18.2256     2.1853     0.6489 </r>
       <r>   -18.1321     2.4120     0.8745 </r>
       <r>   -18.0385     3.4934     1.2014 </r>
       <r>   -17.9449     5.1527     1.6835 </r>
       <r>   -17.8514     3.1662     1.9797 </r>
       <r>   -17.7578     0.2170     2.0000 </r>
       <r>   -17.6643     0.0002     2.0000 </r>
       <r>   -17.5707     0.0000     2.0000 </r>
       <r>   -17.4771     0.0000     2.0000 </r>
       <r>   -17.3836     0.0000     2.0000 </r>
       <r>   -17.2900     0.0000     2.0000 </r>
       <r>   -17.1965     0.0000     2.0000 </r>
       <r>   -17.1029     0.0000     2.0000 </r>
       <r>   -17.0093     0.0000     2.0000 </r>
       <r>   -16.9158     0.0000     2.0000 </r>
       <r>   -16.8222     0.0000     2.0000 </r>
       <r>   -16.7287     0.0000     2.0000 </r>
       <r>   -16.6351     0.0000     2.0000 </r>
       <r>   -16.5415     0.0000     2.0000 </r>
       <r>   -16.4480     0.0000     2.0000 </r>
       <r>   -16.3544     0.0047     2.0004 </r>
       <r>   -16.2609     0.5544     2.0523 </r>
       <r>   -16.1673     2.6579     2.3010 </r>
       <r>   -16.0737     3.1744     2.5980 </r>
       <r>   -15.9802     3.4926     2.9248 </r>
       <r>   -15.8866     1.8939     3.1019 </r>
       <r>   -15.7931     1.7318     3.2640 </r>
       <r>   -15.6995     2.0842     3.4590 </r>
       <r>   -15.6059     1.9197     3.6386 </r>
       <r>   -15.5124     1.7264     3.8001 </r>
       <r>   -15.4188     2.4310     4.0275 </r>
       <r>   -15.3252     2.4514     4.2569 </r>
       <r>   -15.2317     2.4859     4.4895 </r>
       <r>   -15.1381     3.2954     4.7978 </r>
       <r>   -15.0446     4.1713     5.1881 </r>
       <r>   -14.9510     2.5860     5.4300 </r>
       <r>   -14.8574     2.2038     5.6362 </r>
       <r>   -14.7639     1.9916     5.8225 </r>
       <r>   -14.6703     1.4315     5.9565 </r>
       <r>   -14.5768     0.4585     5.9994 </r>
       <r>   -14.4832     0.0067     6.0000 </r>
       <r>   -14.3896     0.0000     6.0000 </r>
       <r>   -14.2961     0.0000     6.0000 </r>
       <r>   -14.2025     0.0000     6.0000 </r>
       <r>   -14.1090     0.0000     6.0000 </r>
       <r>   -14.0154     0.0000     6.0000 </r>
       <r>   -13.9218     0.0000     6.0000 </r>
       <r>   -13.8283     0.0000     6.0000 </r>
       <r>   -13.7347     0.0000     6.0000 </r>
       <r>   -13.6412     0.0000     6.0000 </r>
       <r>   -13.5476     0.0000     6.0000 </r>
       <r>   -13.4540     0.0000     6.0000 </r>
       <r>   -13.3605     0.0000     6.0000 </r>
       <r>   -13.2669     0.0000     6.0000 </r>
       <r>   -13.1733     0.0000     6.0000 </r>
       <r>   -13.0798     0.0000     6.0000 </r>
       <r>   -12.9862     0.0000     6.0000 </r>
       <r>   -12.8927     0.0534     6.0050 </r>
       <r>   -12.7991     0.9855     6.0972 </r>
       <r>   -12.7055     1.6616     6.2527 </r>
       <r>   -12.6120     3.1022     6.5429 </r>
       <r>   -12.5184     2.3280     6.7607 </r>
       <r>   -12.4249     2.2456     6.9708 </r>
       <r>   -12.3313     3.9460     7.3400 </r>
       <r>   -12.2377     4.2428     7.7370 </r>
       <r>   -12.1442     0.8547     7.8169 </r>
       <r>   -12.0506     0.9080     7.9019 </r>
       <r>   -11.9571     1.2016     8.0143 </r>
       <r>   -11.8635     2.3304     8.2323 </r>
       <r>   -11.7699     1.7606     8.3971 </r>
       <r>   -11.6764     0.8465     8.4763 </r>
       <r>   -11.5828     0.2565     8.5003 </r>
       <r>   -11.4893     1.3896     8.6303 </r>
       <r>   -11.3957     3.4479     8.9529 </r>
       <r>   -11.3021     0.9980     9.0462 </r>
       <r>   -11.2086     1.4493     9.1818 </r>
       <r>   -11.1150     1.3385     9.3071 </r>
       <r>   -11.0215     3.2270     9.6090 </r>
       <r>   -10.9279     1.3303     9.7334 </r>
       <r>   -10.8343     1.0815     9.8346 </r>
       <r>   -10.7408     1.0340     9.9314 </r>
       <r>   -10.6472     2.7815    10.1916 </r>
       <r>   -10.5536     0.4138    10.2303 </r>
       <r>   -10.4601     0.3425    10.2624 </r>
       <r>   -10.3665     0.3291    10.2932 </r>
       <r>   -10.2730     1.3934    10.4235 </r>
       <r>   -10.1794     0.4501    10.4656 </r>
       <r>   -10.0858     0.5092    10.5133 </r>
       <r>    -9.9923     0.0083    10.5141 </r>
       <r>    -9.8987     0.0964    10.5231 </r>
       <r>    -9.8052     0.1990    10.5417 </r>
       <r>    -9.7116     2.6463    10.7893 </r>
       <r>    -9.6180     0.7963    10.8638 </r>
       <r>    -9.5245     0.9035    10.9483 </r>
       <r>    -9.4309     1.0624    11.0477 </r>
       <r>    -9.3374     1.8909    11.2247 </r>
       <r>    -9.2438     0.8605    11.3052 </r>
       <r>    -9.1502     0.9836    11.3972 </r>
       <r>    -9.0567     3.3893    11.7143 </r>
       <r>    -8.9631     2.7711    11.9736 </r>
       <r>    -8.8696     2.5493    12.2121 </r>
       <r>    -8.7760     1.5400    12.3562 </r>
       <r>    -8.6824     1.2234    12.4706 </r>
       <r>    -8.5889     0.4576    12.5134 </r>
       <r>    -8.4953     0.5116    12.5613 </r>
       <r>    -8.4017     4.2093    12.9551 </r>
       <r>    -8.3082     5.1276    13.4349 </r>
       <r>    -8.2146     2.1127    13.6325 </r>
       <r>    -8.1211     0.2070    13.6519 </r>
       <r>    -8.0275     1.0477    13.7499 </r>
       <r>    -7.9339     2.9352    14.0245 </r>
       <r>    -7.8404     1.6848    14.1822 </r>
       <r>    -7.7468     1.6435    14.3359 </r>
       <r>    -7.6533     2.2079    14.5425 </r>
       <r>    -7.5597     5.0551    15.0155 </r>
       <r>    -7.4661     1.7595    15.1801 </r>
       <r>    -7.3726     0.7304    15.2484 </r>
       <r>    -7.2790     3.3727    15.5640 </r>
       <r>    -7.1855     3.8200    15.9214 </r>
       <r>    -7.0919     1.6665    16.0773 </r>
       <r>    -6.9983     3.0347    16.3612 </r>
       <r>    -6.9048     1.7581    16.5257 </r>
       <r>    -6.8112     2.1996    16.7315 </r>
       <r>    -6.7177     1.8741    16.9069 </r>
       <r>    -6.6241     2.8441    17.1730 </r>
       <r>    -6.5305     4.7221    17.6148 </r>
       <r>    -6.4370     4.6602    18.0508 </r>
       <r>    -6.3434     2.7267    18.3059 </r>
       <r>    -6.2499     5.0026    18.7739 </r>
       <r>    -6.1563     4.0589    19.1537 </r>
       <r>    -6.0627     2.3817    19.3765 </r>
       <r>    -5.9692     1.0538    19.4751 </r>
       <r>    -5.8756     2.7395    19.7314 </r>
       <r>    -5.7820     1.5981    19.8809 </r>
       <r>    -5.6885     1.1580    19.9893 </r>
       <r>    -5.5949     2.8472    20.2557 </r>
       <r>    -5.5014     0.7248    20.3235 </r>
       <r>    -5.4078     2.1612    20.5257 </r>
       <r>    -5.3142     1.8374    20.6976 </r>
       <r>    -5.2207     3.5551    21.0302 </r>
       <r>    -5.1271     3.5106    21.3587 </r>
       <r>    -5.0336     8.8958    22.1910 </r>
       <r>    -4.9400     8.8007    23.0144 </r>
       <r>    -4.8464     4.6553    23.4499 </r>
       <r>    -4.7529     5.1531    23.9320 </r>
       <r>    -4.6593     1.1052    24.0355 </r>
       <r>    -4.5658     1.7307    24.1974 </r>
       <r>    -4.4722     2.7691    24.4565 </r>
       <r>    -4.3786     4.2702    24.8560 </r>
       <r>    -4.2851     1.9496    25.0384 </r>
       <r>    -4.1915     1.0523    25.1369 </r>
       <r>    -4.0980     1.9483    25.3191 </r>
       <r>    -4.0044     4.6407    25.7533 </r>
       <r>    -3.9108     3.2354    26.0560 </r>
       <r>    -3.8173     3.8734    26.4184 </r>
       <r>    -3.7237     1.8549    26.5920 </r>
       <r>    -3.6301     3.8705    26.9541 </r>
       <r>    -3.5366     6.5485    27.5668 </r>
       <r>    -3.4430     3.5358    27.8976 </r>
       <r>    -3.3495     4.2983    28.2998 </r>
       <r>    -3.2559     5.3282    28.7983 </r>
       <r>    -3.1623     3.8909    29.1623 </r>
       <r>    -3.0688     0.7247    29.2301 </r>
       <r>    -2.9752     1.5756    29.3775 </r>
       <r>    -2.8817     2.1285    29.5767 </r>
       <r>    -2.7881     0.6972    29.6419 </r>
       <r>    -2.6945     0.9641    29.7321 </r>
       <r>    -2.6010     1.3245    29.8560 </r>
       <r>    -2.5074     1.0862    29.9576 </r>
       <r>    -2.4139     0.4324    29.9981 </r>
       <r>    -2.3203     0.0204    30.0000 </r>
       <r>    -2.2267     0.0000    30.0000 </r>
       <r>    -2.1332     0.0000    30.0000 </r>
       <r>    -2.0396     0.0000    30.0000 </r>
       <r>    -1.9461     0.0001    30.0000 </r>
       <r>    -1.8525     0.1139    30.0107 </r>
       <r>    -1.7589     1.0037    30.1046 </r>
       <r>    -1.6654     0.7250    30.1724 </r>
       <r>    -1.5718     1.9732    30.3570 </r>
       <r>    -1.4783     2.7133    30.6109 </r>
       <r>    -1.3847     1.9002    30.7887 </r>
       <r>    -1.2911     1.5488    30.9336 </r>
       <r>    -1.1976     2.4454    31.1624 </r>
       <r>    -1.1040     3.4067    31.4811 </r>
       <r>    -1.0104     1.5070    31.6221 </r>
       <r>    -0.9169     0.1078    31.6322 </r>
       <r>    -0.8233     1.2838    31.7523 </r>
       <r>    -0.7298     0.4204    31.7916 </r>
       <r>    -0.6362     0.3877    31.8279 </r>
       <r>    -0.5426     1.4675    31.9652 </r>
       <r>    -0.4491     0.0751    31.9722 </r>
       <r>    -0.3555     0.0000    31.9722 </r>
       <r>    -0.2620     0.0000    31.9722 </r>
       <r>    -0.1684     0.0001    31.9722 </r>
       <r>    -0.0748     0.1127    31.9828 </r>
       <r>     0.0187     0.4581    32.0256 </r>
       <r>     0.1123     0.0229    32.0278 </r>
       <r>     0.2058     0.0000    32.0278 </r>
       <r>     0.2994     0.0000    32.0278 </r>
       <r>     0.3930     0.0006    32.0278 </r>
       <r>     0.4865     0.3932    32.0646 </r>
       <r>     0.5801     1.3338    32.1894 </r>
       <r>     0.6736     0.0701    32.1960 </r>
       <r>     0.7672     0.6165    32.2536 </r>
       <r>     0.8608     0.2574    32.2777 </r>
       <r>     0.9543     0.0120    32.2788 </r>
       <r>     1.0479     1.8892    32.4556 </r>
       <r>     1.1415     3.6509    32.7972 </r>
       <r>     1.2350     2.1828    33.0014 </r>
       <r>     1.3286     1.9935    33.1879 </r>
       <r>     1.4221     2.3601    33.4087 </r>
       <r>     1.5157     1.2901    33.5294 </r>
       <r>     1.6093     2.4113    33.7550 </r>
       <r>     1.7028     1.3933    33.8854 </r>
       <r>     1.7964     0.6468    33.9459 </r>
       <r>     1.8899     1.3257    34.0699 </r>
       <r>     1.9835     3.0339    34.3538 </r>
       <r>     2.0771     1.5913    34.5027 </r>
       <r>     2.1706     1.6551    34.6575 </r>
       <r>     2.2642     1.7302    34.8194 </r>
       <r>     2.3577     1.7157    34.9799 </r>
       <r>     2.4513     2.5667    35.2201 </r>
       <r>     2.5449     1.6923    35.3784 </r>
       <r>     2.6384     2.4704    35.6095 </r>
       <r>     2.7320     0.5541    35.6614 </r>
       <r>     2.8255     2.7906    35.9225 </r>
       <r>     2.9191     3.7585    36.2741 </r>
       <r>     3.0127     1.8230    36.4447 </r>
       <r>     3.1062     1.1353    36.5509 </r>
       <r>     3.1998     1.8004    36.7194 </r>
       <r>     3.2933     2.4070    36.9446 </r>
       <r>     3.3869     4.5766    37.3727 </r>
       <r>     3.4805     0.8861    37.4556 </r>
       <r>     3.5740     1.3272    37.5798 </r>
       <r>     3.6676     1.0413    37.6773 </r>
       <r>     3.7612     1.6646    37.8330 </r>
       <r>     3.8547     3.3643    38.1478 </r>
       <r>     3.9483     2.5230    38.3838 </r>
       <r>     4.0418     1.5432    38.5282 </r>
       <r>     4.1354     1.8609    38.7023 </r>
       <r>     4.2290     1.0273    38.7984 </r>
       <r>     4.3225     2.0485    38.9901 </r>
       <r>     4.4161     2.1481    39.1911 </r>
       <r>     4.5096     2.3694    39.4127 </r>
       <r>     4.6032     2.3791    39.6353 </r>
       <r>     4.6968     1.6314    39.7880 </r>
       <r>     4.7903     4.0557    40.1674 </r>
       <r>     4.8839     3.5769    40.5021 </r>
       <r>     4.9774     1.4450    40.6373 </r>
       <r>     5.0710     2.1755    40.8408 </r>
       <r>     5.1646     3.6941    41.1864 </r>
       <r>     5.2581     4.2679    41.5857 </r>
       <r>     5.3517     1.7406    41.7486 </r>
       <r>     5.4452     1.2150    41.8623 </r>
       <r>     5.5388     3.0892    42.1513 </r>
       <r>     5.6324     4.2360    42.5476 </r>
       <r>     5.7259     2.7858    42.8083 </r>
       <r>     5.8195     2.2332    43.0172 </r>
       <r>     5.9130     3.2111    43.3176 </r>
       <r>     6.0066     4.4746    43.7363 </r>
       <r>     6.1002     3.2634    44.0416 </r>
       <r>     6.1937     3.7703    44.3944 </r>
       <r>     6.2873     2.8348    44.6596 </r>
       <r>     6.3809     3.9537    45.0295 </r>
       <r>     6.4744     2.7245    45.2844 </r>
       <r>     6.5680     9.0477    46.1309 </r>
       <r>     6.6615     3.9141    46.4971 </r>
       <r>     6.7551     4.1822    46.8884 </r>
       <r>     6.8487     5.5974    47.4121 </r>
       <r>     6.9422     4.0624    47.7922 </r>
       <r>     7.0358     2.1653    47.9948 </r>
       <r>     7.1293     0.0558    48.0000 </r>
       <r>     7.2229     0.0000    48.0000 </r>
       <r>     7.3165     0.0000    48.0000 </r>
       <r>     7.4100     0.0000    48.0000 </r>
       <r>     7.5036     0.0000    48.0000 </r>
       <r>     7.5971     0.0000    48.0000 </r>
       <r>     7.6907     0.0000    48.0000 </r>
       <r>     7.7843     0.0000    48.0000 </r>
       <r>     7.8778     0.0000    48.0000 </r>
       <r>     7.9714     0.0000    48.0000 </r>
       <r>     8.0649     0.0000    48.0000 </r>
       <r>     8.1585     0.0000    48.0000 </r>
       <r>     8.2521     0.0000    48.0000 </r>
      </set>
     </set>
    </array>
   </total>
  </dos>
 </calculation>
 <structure name="finalpos" >
  <crystal>
   <varray name="basis" >
    <v>       4.48084843       2.58701885       0.00000000 </v>
    <v>      -4.48084843       2.58701885       0.00000000 </v>
    <v>       0.00000000       0.00000000       8.52022140 </v>
   </varray>
   <i name="volume">    197.53348383 </i>
   <varray name="rec_basis" >
    <v>       0.11158601       0.19327265       0.00000000 </v>
    <v>      -0.11158601       0.19327265       0.00000000 </v>
    <v>       0.00000000       0.00000000       0.11736784 </v>
   </varray>
  </crystal>
  <varray name="positions" >
   <v>       0.33333300       0.66666600       0.25000000 </v>
   <v>       0.66666600       0.33333300       0.25000000 </v>
   <v>       0.15869124       0.31738348       0.25000000 </v>
   <v>       0.31738348       0.15869124       0.25000000 </v>
   <v>       0.15869124       0.84130776       0.25000000 </v>
   <v>       0.84130776       0.15869124       0.25000000 </v>
   <v>       0.68261552       0.84130776       0.25000000 </v>
   <v>       0.84130776       0.68261552       0.25000000 </v>
  </varray>
 </structure>
</modeling>
