 running on   12 total cores
 distrk:  each k-point on   12 cores,    1 groups
 distr:  one band on    1 cores,   12 groups
 using from now: INCAR     
 vasp.5.4.4.18Apr17-6-g9f103f2a35 (build Mar 30 2023 15:39:25) complex          
  
 POSCAR found type information on POSCAR  B  C 
 POSCAR found :  2 types and     288 ions
 scaLAPACK will be used

 ----------------------------------------------------------------------------- 
|                                                                             |
|           W    W    AA    RRRRR   N    N  II  N    N   GGGG   !!!           |
|           W    W   A  A   R    R  NN   N  II  NN   N  G    G  !!!           |
|           W    W  A    A  R    R  N N  N  II  N N  N  G       !!!           |
|           W WW W  AAAAAA  RRRRR   N  N N  II  N  N N  G  GGG   !            |
|           WW  WW  A    A  R   R   N   NN  II  N   NN  G    G                |
|           W    W  A    A  R    R  N    N  II  N    N   GGGG   !!!           |
|                                                                             |
|      For optimal performance we recommend to set                            |
|        NCORE= 4 - approx SQRT( number of cores)                             |
|      NCORE specifies how many cores store one orbital (NPAR=cpu/NCORE).     |
|      This setting can  greatly improve the performance of VASP for DFT.     |
|      The default,   NCORE=1            might be grossly inefficient         |
|      on modern multi-core architectures or massively parallel machines.     |
|      Do your own testing !!!!                                               |
|      Unfortunately you need to use the default for GW and RPA calculations. |
|      (for HF NCORE is supported but not extensively tested yet)             |
|                                                                             |
 ----------------------------------------------------------------------------- 


 ----------------------------------------------------------------------------- 
|                                                                             |
|  ADVICE TO THIS USER RUNNING 'VASP/VAMP'   (HEAR YOUR MASTER'S VOICE ...):  |
|                                                                             |
|      You have a (more or less) 'large supercell' and for larger cells       |
|      it might be more efficient to use real space projection opertators     |
|      So try LREAL= Auto  in the INCAR   file.                               |
|      Mind:          For very  accurate calculation you might also keep the  |
|      reciprocal projection scheme          (i.e. LREAL=.FALSE.)             |
|                                                                             |
 ----------------------------------------------------------------------------- 

 LDA part: xc-table for Pade appr. of Perdew
 POSCAR, INCAR and KPOINTS ok, starting setup
 FFT: planning ...
 WAVECAR not read
 entering main loop
       N       E                     dE             d eps       ncg     rms          rms(c)
DAV:   1     0.753314282097E+04    0.75331E+04   -0.41361E+05  9924   0.112E+03
DAV:   2    -0.138110419122E+04   -0.89142E+04   -0.85210E+04 13500   0.281E+02
DAV:   3    -0.259550718789E+04   -0.12144E+04   -0.11962E+04 11088   0.107E+02
DAV:   4    -0.264213295277E+04   -0.46626E+02   -0.46407E+02 12096   0.245E+01
DAV:   5    -0.264382105817E+04   -0.16881E+01   -0.16862E+01 12744   0.400E+00    0.786E+01
DAV:   6    -0.248333772103E+04    0.16048E+03   -0.18526E+02 10464   0.130E+01    0.445E+01
DAV:   7    -0.242397819309E+04    0.59360E+02   -0.15157E+02 10140   0.114E+01    0.129E+01
DAV:   8    -0.242085226642E+04    0.31259E+01   -0.67878E+00 11076   0.267E+00    0.346E+00
DAV:   9    -0.242014228825E+04    0.70998E+00   -0.72777E-01 10764   0.965E-01    0.119E+00
DAV:  10    -0.241989320733E+04    0.24908E+00   -0.34064E-01 10620   0.478E-01    0.725E-01
DAV:  11    -0.241999578522E+04   -0.10258E+00   -0.20507E-01 10344   0.369E-01    0.322E-01
DAV:  12    -0.242014457847E+04   -0.14879E+00   -0.50777E-02 10128   0.186E-01    0.163E-01
DAV:  13    -0.242020851095E+04   -0.63932E-01   -0.40900E-03 10776   0.821E-02    0.461E-02
DAV:  14    -0.242021684067E+04   -0.83297E-02   -0.35157E-04 10284   0.222E-02    0.190E-02
DAV:  15    -0.242021781950E+04   -0.97883E-03   -0.12176E-04 10224   0.108E-02    0.463E-03
DAV:  16    -0.242021792125E+04   -0.10175E-03   -0.56515E-06 10200   0.243E-03    0.236E-03
DAV:  17    -0.242021796663E+04   -0.45384E-04   -0.18365E-06  7092   0.142E-03    0.679E-04
DAV:  18    -0.242021797030E+04   -0.36631E-05   -0.16518E-07  5892   0.547E-04    0.252E-04
DAV:  19    -0.242021797040E+04   -0.10134E-06   -0.59793E-08  6228   0.300E-04
