<?xml version="1.0" encoding="ISO-8859-1"?>
<modeling>
 <generator>
  <i name="program" type="string">vasp </i>
  <i name="version" type="string">5.4.4.18Apr17-6-g9f103f2a35  </i>
  <i name="subversion" type="string">(build Mar 30 2023 15:39:25) complex            parallel </i>
  <i name="platform" type="string">LinuxIFC </i>
  <i name="date" type="string">2023 06 22 </i>
  <i name="time" type="string">12:46:21 </i>
 </generator>
 <incar>
  <i type="string" name="SYSTEM"> BC3</i>
  <i type="int" name="ISTART">     0</i>
  <i type="string" name="PREC">accurate</i>
  <i type="string" name="ALGO"> Normal</i>
  <i type="int" name="ICHARG">     2</i>
  <i type="int" name="NELM">   200</i>
  <i type="int" name="IBRION">     8</i>
  <i name="EDIFF">      0.00000100</i>
  <i name="EDIFFG">     -0.00100000</i>
  <i type="int" name="NSW">     1</i>
  <i type="int" name="ISIF">     2</i>
  <i name="ENCUT">    450.00000000</i>
  <i type="int" name="ISMEAR">     0</i>
  <i name="SIGMA">      0.10000000</i>
  <v type="int" name="KPOINT_BSE">    -1     0     0     0</v>
  <i type="int" name="NELM">   200</i>
 </incar>
 <structure name="primitive_cell" >
  <crystal>
   <varray name="basis" >
    <v>       4.48084843       2.58701885       0.00000000 </v>
    <v>      -4.48084843       2.58701885       0.00000000 </v>
    <v>       0.00000000       0.00000000       8.52022140 </v>
   </varray>
   <i name="volume">    197.53348383 </i>
   <varray name="rec_basis" >
    <v>       0.11158601       0.19327265       0.00000000 </v>
    <v>      -0.11158601       0.19327265       0.00000000 </v>
    <v>       0.00000000       0.00000000       0.11736784 </v>
   </varray>
  </crystal>
  <varray name="positions" >
   <v>       0.33333300      -0.33333400       0.25000000 </v>
   <v>       0.15869124       0.31738348       0.25000000 </v>
   <v>      -0.31738448      -0.15869224       0.25000000 </v>
   <v>       0.15869124      -0.15869224       0.25000000 </v>
   <v>      -0.15869224       0.15869124       0.25000000 </v>
   <v>       0.31738348       0.15869124       0.25000000 </v>
   <v>      -0.15869224      -0.31738448       0.25000000 </v>
   <v>      -0.33333400       0.33333300       0.25000000 </v>
  </varray>
 </structure>
 <varray name="primitive_index" >
  <v type="int" >        1 </v>
  <v type="int" >       19 </v>
  <v type="int" >       55 </v>
  <v type="int" >       37 </v>
  <v type="int" >       49 </v>
  <v type="int" >       28 </v>
  <v type="int" >       64 </v>
  <v type="int" >       10 </v>
 </varray>
 <kpoints>
  <generation param="Gamma">
   <v type="int" name="divisions">       4        4        1 </v>
   <v name="usershift">      0.00000000       0.00000000       0.00000000 </v>
   <v name="genvec1">      0.25000000       0.00000000       0.00000000 </v>
   <v name="genvec2">      0.00000000       0.25000000       0.00000000 </v>
   <v name="genvec3">      0.00000000       0.00000000       1.00000000 </v>
   <v name="shift">      0.00000000       0.00000000       0.00000000 </v>
  </generation>
  <varray name="kpointlist" >
   <v>       0.00000000       0.00000000       0.00000000 </v>
   <v>       0.25000000      -0.00000000       0.00000000 </v>
   <v>       0.50000000      -0.00000000       0.00000000 </v>
   <v>       0.25000000       0.25000000       0.00000000 </v>
  </varray>
  <varray name="weights" >
   <v>       0.06250000 </v>
   <v>       0.37500000 </v>
   <v>       0.18750000 </v>
   <v>       0.37500000 </v>
  </varray>
 </kpoints>
 <parameters>
  <separator name="general" >
   <i type="string" name="SYSTEM">BC3</i>
   <i type="logical" name="LCOMPAT"> F  </i>
  </separator>
  <separator name="electronic" >
   <i type="string" name="PREC">accura</i>
   <i name="ENMAX">    450.00000000</i>
   <i name="ENAUG">    644.87300000</i>
   <i name="EDIFF">      0.00000100</i>
   <i type="int" name="IALGO">    38</i>
   <i type="int" name="IWAVPR">    11</i>
   <i type="int" name="NBANDS">   180</i>
   <i name="NELECT">    270.00000000</i>
   <i type="int" name="TURBO">     0</i>
   <i type="int" name="IRESTART">     0</i>
   <i type="int" name="NREBOOT">     0</i>
   <i type="int" name="NMIN">     0</i>
   <i name="EREF">      0.00000000</i>
   <separator name="electronic smearing" >
    <i type="int" name="ISMEAR">     0</i>
    <i name="SIGMA">      0.10000000</i>
    <i name="KSPACING">      0.50000000</i>
    <i type="logical" name="KGAMMA"> T  </i>
   </separator>
   <separator name="electronic projectors" >
    <i type="logical" name="LREAL"> F  </i>
    <v name="ROPT">      0.00000000      0.00000000</v>
    <i type="int" name="LMAXPAW">  -100</i>
    <i type="int" name="LMAXMIX">     2</i>
    <i type="logical" name="NLSPLINE"> F  </i>
   </separator>
   <separator name="electronic startup" >
    <i type="int" name="ISTART">     0</i>
    <i type="int" name="ICHARG">     2</i>
    <i type="int" name="INIWAV">     1</i>
   </separator>
   <separator name="electronic spin" >
    <i type="int" name="ISPIN">     1</i>
    <i type="logical" name="LNONCOLLINEAR"> F  </i>
    <v name="MAGMOM">      1.00000000      1.00000000      1.00000000      1.00000000      1.00000000      1.00000000      1.00000000      1.00000000      1.00000000      1.00000000      1.00000000      1.00000000      1.00000000      1.00000000      1.00000000      1.00000000      1.00000000      1.00000000      1.00000000      1.00000000
      1.00000000      1.00000000      1.00000000      1.00000000      1.00000000      1.00000000      1.00000000      1.00000000      1.00000000      1.00000000      1.00000000      1.00000000      1.00000000      1.00000000      1.00000000      1.00000000      1.00000000      1.00000000      1.00000000      1.00000000
      1.00000000      1.00000000      1.00000000      1.00000000      1.00000000      1.00000000      1.00000000      1.00000000      1.00000000      1.00000000      1.00000000      1.00000000      1.00000000      1.00000000      1.00000000      1.00000000      1.00000000      1.00000000      1.00000000      1.00000000
      1.00000000      1.00000000      1.00000000      1.00000000      1.00000000      1.00000000      1.00000000      1.00000000      1.00000000      1.00000000      1.00000000      1.00000000</v>
    <i name="NUPDOWN">     -1.00000000</i>
    <i type="logical" name="LSORBIT"> F  </i>
    <v name="SAXIS">      0.00000000      0.00000000      1.00000000</v>
    <i type="logical" name="LSPIRAL"> F  </i>
    <v name="QSPIRAL">      0.00000000      0.00000000      0.00000000</v>
    <i type="logical" name="LZEROZ"> F  </i>
   </separator>
   <separator name="electronic exchange-correlation" >
    <i type="logical" name="LASPH"> F  </i>
    <i type="logical" name="LMETAGGA"> F  </i>
   </separator>
   <separator name="electronic convergence" >
    <i type="int" name="NELM">   200</i>
    <i type="int" name="NELMDL">    -5</i>
    <i type="int" name="NELMIN">     2</i>
    <i name="ENINI">    450.00000000</i>
    <separator name="electronic convergence detail" >
     <i type="logical" name="LDIAG"> T  </i>
     <i type="logical" name="LSUBROT"> F  </i>
     <i name="WEIMIN">      0.00100000</i>
     <i name="EBREAK">      0.00000000</i>
     <i name="DEPER">      0.30000000</i>
     <i type="int" name="NRMM">     4</i>
     <i name="TIME">      0.40000000</i>
    </separator>
   </separator>
   <separator name="electronic mixer" >
    <i name="AMIX">      0.40000000</i>
    <i name="BMIX">      1.00000000</i>
    <i name="AMIN">      0.10000000</i>
    <i name="AMIX_MAG">      1.60000000</i>
    <i name="BMIX_MAG">      1.00000000</i>
    <separator name="electronic mixer details" >
     <i type="int" name="IMIX">     4</i>
     <i type="logical" name="MIXFIRST"> F  </i>
     <i type="int" name="MAXMIX">   -45</i>
     <i name="WC">    100.00000000</i>
     <i type="int" name="INIMIX">     1</i>
     <i type="int" name="MIXPRE">     1</i>
     <i type="int" name="MREMOVE">     5</i>
    </separator>
   </separator>
   <separator name="electronic dipolcorrection" >
    <i type="logical" name="LDIPOL"> F  </i>
    <i type="logical" name="LMONO"> F  </i>
    <i type="int" name="IDIPOL">     0</i>
    <i name="EPSILON">      1.00000000</i>
    <v name="DIPOL">   -100.00000000   -100.00000000   -100.00000000</v>
    <i name="EFIELD">      0.00000000</i>
   </separator>
  </separator>
  <separator name="grids" >
   <i type="int" name="NGX">   108</i>
   <i type="int" name="NGY">   108</i>
   <i type="int" name="NGZ">    60</i>
   <i type="int" name="NGXF">   216</i>
   <i type="int" name="NGYF">   216</i>
   <i type="int" name="NGZF">   120</i>
   <i type="logical" name="ADDGRID"> F  </i>
  </separator>
  <separator name="ionic" >
   <i type="int" name="NSW">     1</i>
   <i type="int" name="IBRION">     8</i>
   <i type="int" name="MDALGO">     0</i>
   <i type="int" name="ISIF">     2</i>
   <i name="PSTRESS">      0.00000000</i>
   <i name="EDIFFG">     -0.00100000</i>
   <i type="int" name="NFREE">     0</i>
   <i name="POTIM">      0.50000000</i>
   <i name="SMASS">     -3.00000000</i>
   <i name="SCALEE">      1.00000000</i>
  </separator>
  <separator name="ionic md" >
   <i name="TEBEG">      0.00010000</i>
   <i name="TEEND">      0.00010000</i>
   <i type="int" name="NBLOCK">     1</i>
   <i type="int" name="KBLOCK">     1</i>
   <i type="int" name="NPACO">   256</i>
   <i name="APACO">     16.00000000</i>
  </separator>
  <separator name="symmetry" >
   <i type="int" name="ISYM">     2</i>
   <i name="SYMPREC">      0.00001000</i>
  </separator>
  <separator name="dos" >
   <i type="int" name="LORBIT">     0</i>
   <v name="RWIGS">     -1.00000000     -1.00000000</v>
   <i type="int" name="NEDOS">   301</i>
   <i name="EMIN">     10.00000000</i>
   <i name="EMAX">    -10.00000000</i>
   <i name="EFERMI">      0.00000000</i>
  </separator>
  <separator name="writing" >
   <i type="int" name="NWRITE">     2</i>
   <i type="logical" name="LWAVE"> T  </i>
   <i type="logical" name="LDOWNSAMPLE"> F  </i>
   <i type="logical" name="LCHARG"> T  </i>
   <i type="logical" name="LPARD"> F  </i>
   <i type="logical" name="LVTOT"> F  </i>
   <i type="logical" name="LVHAR"> F  </i>
   <i type="logical" name="LELF"> F  </i>
   <i type="logical" name="LOPTICS"> F  </i>
   <v name="STM">      0.00000000      0.00000000      0.00000000      0.00000000      0.00000000      0.00000000      0.00000000</v>
  </separator>
  <separator name="performance" >
   <i type="int" name="NPAR">    12</i>
   <i type="int" name="NSIM">     4</i>
   <i type="int" name="NBLK">    -1</i>
   <i type="logical" name="LPLANE"> T  </i>
   <i type="logical" name="LSCALAPACK"> T  </i>
   <i type="logical" name="LSCAAWARE"> F  </i>
   <i type="logical" name="LSCALU"> F  </i>
   <i type="logical" name="LASYNC"> F  </i>
   <i type="logical" name="LORBITALREAL"> F  </i>
  </separator>
  <separator name="miscellaneous" >
   <i type="int" name="IDIOT">     3</i>
   <i type="int" name="ISPECIAL">     0</i>
   <i type="logical" name="LMUSIC"> F  </i>
   <v name="POMASS">     10.81100000     12.01100000</v>
   <v name="DARWINR">      0.00000000      0.00000000</v>
   <v name="DARWINV">      1.00000000      1.00000000</v>
   <i type="logical" name="LCORR"> T  </i>
  </separator>
  <i type="logical" name="GGA_COMPAT"> T  </i>
  <i type="logical" name="LBERRY"> F  </i>
  <i type="int" name="ICORELEVEL">     0</i>
  <i type="logical" name="LDAU"> F  </i>
  <i type="int" name="I_CONSTRAINED_M">     0</i>
  <separator name="electronic exchange-correlation" >
   <i type="string" name="GGA">--</i>
   <i type="int" name="VOSKOWN">     0</i>
   <i type="logical" name="LHFCALC"> F  </i>
   <i type="string" name="PRECFOCK"></i>
   <i type="logical" name="LSYMGRAD"> F  </i>
   <i type="logical" name="LHFONE"> F  </i>
   <i type="logical" name="LRHFCALC"> F  </i>
   <i type="logical" name="LTHOMAS"> F  </i>
   <i type="logical" name="LMODELHF"> F  </i>
   <i name="ENCUT4O">     -1.00000000</i>
   <i type="int" name="EXXOEP">     0</i>
   <i type="int" name="FOURORBIT">     0</i>
   <i name="AEXX">      0.00000000</i>
   <i name="HFALPHA">      0.00000000</i>
   <i name="MCALPHA">      0.00000000</i>
   <i name="ALDAX">      1.00000000</i>
   <i name="AGGAX">      1.00000000</i>
   <i name="ALDAC">      1.00000000</i>
   <i name="AGGAC">      1.00000000</i>
   <i type="int" name="NKREDX">     1</i>
   <i type="int" name="NKREDY">     1</i>
   <i type="int" name="NKREDZ">     1</i>
   <i type="logical" name="SHIFTRED"> F  </i>
   <i type="logical" name="ODDONLY"> F  </i>
   <i type="logical" name="EVENONLY"> F  </i>
   <i type="int" name="LMAXFOCK">     0</i>
   <i type="int" name="NMAXFOCKAE">     0</i>
   <i type="logical" name="LFOCKAEDFT"> F  </i>
   <i name="HFSCREEN">      0.00000000</i>
   <i name="HFSCREENC">      0.00000000</i>
   <i type="int" name="NBANDSGWLOW">     0</i>
  </separator>
  <separator name="vdW DFT" >
   <i type="logical" name="LUSE_VDW"> F  </i>
   <i name="Zab_VDW">     -0.84910000</i>
   <i name="PARAM1">      0.12340000</i>
   <i name="PARAM2">      1.00000000</i>
   <i name="PARAM3">      0.00000000</i>
  </separator>
  <separator name="model GW" >
   <i type="int" name="MODEL_GW">     0</i>
   <i name="MODEL_EPS0">     14.81501129</i>
   <i name="MODEL_ALPHA">      1.00000000</i>
  </separator>
  <separator name="linear response parameters" >
   <i type="logical" name="LEPSILON"> F  </i>
   <i type="logical" name="LRPA"> F  </i>
   <i type="logical" name="LNABLA"> F  </i>
   <i type="logical" name="LVEL"> F  </i>
   <i type="int" name="KINTER">     0</i>
   <i name="CSHIFT">      0.10000000</i>
   <i name="OMEGAMAX">     -1.00000000</i>
   <i name="DEG_THRESHOLD">      0.00200000</i>
   <i name="RTIME">     -0.10000000</i>
   <i name="WPLASMAI">      0.00000000</i>
   <v name="DFIELD">      0.00000000      0.00000000      0.00000000</v>
   <v name="WPLASMA">      0.00000000      0.00000000      0.00000000      0.00000000      0.00000000      0.00000000      0.00000000      0.00000000      0.00000000</v>
  </separator>
  <separator name="orbital magnetization" >
   <i type="logical" name="NUCIND"> F  </i>
   <v name="MAGPOS">      0.00000000      0.00000000      0.00000000</v>
   <i type="logical" name="LNICSALL"> T  </i>
   <i type="logical" name="ORBITALMAG"> F  </i>
   <i type="logical" name="LMAGBLOCH"> F  </i>
   <i type="logical" name="LCHIMAG"> F  </i>
   <i type="logical" name="LGAUGE"> T  </i>
   <i type="int" name="MAGATOM">     0</i>
   <v name="MAGDIPOL">      0.00000000      0.00000000      0.00000000</v>
   <v name="AVECCONST">      0.00000000      0.00000000      0.00000000</v>
  </separator>
  <separator name="response functions" >
   <i type="logical" name="LADDER"> F  </i>
   <i type="logical" name="LRPAFORCE"> F  </i>
   <i type="logical" name="LFXC"> F  </i>
   <i type="logical" name="LHARTREE"> T  </i>
   <i type="int" name="IBSE">     0</i>
   <v type="int" name="KPOINT">    -1     0     0     0</v>
   <i type="logical" name="LTCTE"> F  </i>
   <i type="logical" name="LTETE"> F  </i>
   <i type="logical" name="LTRIPLET"> F  </i>
   <i type="logical" name="LFXCEPS"> F  </i>
   <i type="logical" name="LFXHEG"> F  </i>
   <i type="int" name="NATURALO">     2</i>
   <i type="logical" name="L2ORDER"> F  </i>
   <i type="logical" name="LMP2LT"> F  </i>
   <i type="logical" name="LUSEW"> F  </i>
   <i name="ENCUTGW">     -2.00000000</i>
   <i name="ENCUTGWSOFT">     -2.00000000</i>
   <i name="ENCUTLF">     -1.00000000</i>
   <i type="int" name="LMAXMP2">    -1</i>
   <i name="SCISSOR">      0.00000000</i>
   <i type="int" name="NOMEGA">     0</i>
   <i type="int" name="NOMEGAR">     0</i>
   <i type="int" name="NBANDSGW">    -1</i>
   <i type="int" name="NBANDSO">    -1</i>
   <i type="int" name="NBANDSV">    -1</i>
   <i type="int" name="NELM">   200</i>
   <i type="int" name="NELMHF">     1</i>
   <i type="int" name="DIM">     3</i>
   <i type="int" name="ANTIRES">     0</i>
   <i name="OMEGAMAX">    -30.00000000</i>
   <i name="OMEGAMIN">    -30.00000000</i>
   <i name="OMEGATL">   -200.00000000</i>
   <i type="int" name="OMEGAGRID">   140</i>
   <i name="CSHIFT">     -0.10000000</i>
   <i type="logical" name="SELFENERGY"> F  </i>
   <i type="logical" name="LSPECTRAL"> F  </i>
   <i type="logical" name="LSPECTRALGW"> F  </i>
   <i type="logical" name="LSINGLES"> F  </i>
   <i type="logical" name="LFERMIGW"> F  </i>
   <i type="logical" name="ODDONLYGW"> F  </i>
   <i type="logical" name="EVENONLYGW"> F  </i>
   <i type="int" name="NKREDLFX">     1</i>
   <i type="int" name="NKREDLFY">     1</i>
   <i type="int" name="NKREDLFZ">     1</i>
   <i type="int" name="MAXMEM">  2800</i>
   <i type="int" name="TELESCOPE">     0</i>
   <i type="int" name="TAUPAR">     1</i>
   <i type="int" name="OMEGAPAR">    -1</i>
   <i name="LAMBDA">      1.00000000</i>
  </separator>
  <separator name="External order field" >
   <i name="OFIELD_KAPPA">      0.00000000</i>
   <v name="OFIELD_K">      0.00000000      0.00000000      0.00000000</v>
   <i name="OFIELD_Q6_NEAR">      0.00000000</i>
   <i name="OFIELD_Q6_FAR">      0.00000000</i>
   <i name="OFIELD_A">      0.00000000</i>
  </separator>
 </parameters>
 <atominfo>
  <atoms>      72 </atoms>
  <types>       2 </types>
  <array name="atoms" >
   <dimension dim="1">ion</dimension>
   <field type="string">element</field>
   <field type="int">atomtype</field>
   <set>
    <rc><c>B </c><c>   1</c></rc>
    <rc><c>B </c><c>   1</c></rc>
    <rc><c>B </c><c>   1</c></rc>
    <rc><c>B </c><c>   1</c></rc>
    <rc><c>B </c><c>   1</c></rc>
    <rc><c>B </c><c>   1</c></rc>
    <rc><c>B </c><c>   1</c></rc>
    <rc><c>B </c><c>   1</c></rc>
    <rc><c>B </c><c>   1</c></rc>
    <rc><c>B </c><c>   1</c></rc>
    <rc><c>B </c><c>   1</c></rc>
    <rc><c>B </c><c>   1</c></rc>
    <rc><c>B </c><c>   1</c></rc>
    <rc><c>B </c><c>   1</c></rc>
    <rc><c>B </c><c>   1</c></rc>
    <rc><c>B </c><c>   1</c></rc>
    <rc><c>B </c><c>   1</c></rc>
    <rc><c>B </c><c>   1</c></rc>
    <rc><c>C </c><c>   2</c></rc>
    <rc><c>C </c><c>   2</c></rc>
    <rc><c>C </c><c>   2</c></rc>
    <rc><c>C </c><c>   2</c></rc>
    <rc><c>C </c><c>   2</c></rc>
    <rc><c>C </c><c>   2</c></rc>
    <rc><c>C </c><c>   2</c></rc>
    <rc><c>C </c><c>   2</c></rc>
    <rc><c>C </c><c>   2</c></rc>
    <rc><c>C </c><c>   2</c></rc>
    <rc><c>C </c><c>   2</c></rc>
    <rc><c>C </c><c>   2</c></rc>
    <rc><c>C </c><c>   2</c></rc>
    <rc><c>C </c><c>   2</c></rc>
    <rc><c>C </c><c>   2</c></rc>
    <rc><c>C </c><c>   2</c></rc>
    <rc><c>C </c><c>   2</c></rc>
    <rc><c>C </c><c>   2</c></rc>
    <rc><c>C </c><c>   2</c></rc>
    <rc><c>C </c><c>   2</c></rc>
    <rc><c>C </c><c>   2</c></rc>
    <rc><c>C </c><c>   2</c></rc>
    <rc><c>C </c><c>   2</c></rc>
    <rc><c>C </c><c>   2</c></rc>
    <rc><c>C </c><c>   2</c></rc>
    <rc><c>C </c><c>   2</c></rc>
    <rc><c>C </c><c>   2</c></rc>
    <rc><c>C </c><c>   2</c></rc>
    <rc><c>C </c><c>   2</c></rc>
    <rc><c>C </c><c>   2</c></rc>
    <rc><c>C </c><c>   2</c></rc>
    <rc><c>C </c><c>   2</c></rc>
    <rc><c>C </c><c>   2</c></rc>
    <rc><c>C </c><c>   2</c></rc>
    <rc><c>C </c><c>   2</c></rc>
    <rc><c>C </c><c>   2</c></rc>
    <rc><c>C </c><c>   2</c></rc>
    <rc><c>C </c><c>   2</c></rc>
    <rc><c>C </c><c>   2</c></rc>
    <rc><c>C </c><c>   2</c></rc>
    <rc><c>C </c><c>   2</c></rc>
    <rc><c>C </c><c>   2</c></rc>
    <rc><c>C </c><c>   2</c></rc>
    <rc><c>C </c><c>   2</c></rc>
    <rc><c>C </c><c>   2</c></rc>
    <rc><c>C </c><c>   2</c></rc>
    <rc><c>C </c><c>   2</c></rc>
    <rc><c>C </c><c>   2</c></rc>
    <rc><c>C </c><c>   2</c></rc>
    <rc><c>C </c><c>   2</c></rc>
    <rc><c>C </c><c>   2</c></rc>
    <rc><c>C </c><c>   2</c></rc>
    <rc><c>C </c><c>   2</c></rc>
    <rc><c>C </c><c>   2</c></rc>
   </set>
  </array>
  <array name="atomtypes" >
   <dimension dim="1">type</dimension>
   <field type="int">atomspertype</field>
   <field type="string">element</field>
   <field>mass</field>
   <field>valence</field>
   <field type="string">pseudopotential</field>
   <set>
    <rc><c>  18</c><c>B </c><c>     10.81100000</c><c>      3.00000000</c><c>  PAW_PBE B 06Sep2000                   </c></rc>
    <rc><c>  54</c><c>C </c><c>     12.01100000</c><c>      4.00000000</c><c>  PAW_PBE C 08Apr2002                   </c></rc>
   </set>
  </array>
 </atominfo>
 <structure name="initialpos" >
  <crystal>
   <varray name="basis" >
    <v>      13.44254530       7.76105656       0.00000000 </v>
    <v>     -13.44254530       7.76105656       0.00000000 </v>
    <v>       0.00000000       0.00000000       8.52022140 </v>
   </varray>
   <i name="volume">   1777.80135444 </i>
   <varray name="rec_basis" >
    <v>       0.03719534       0.06442422       0.00000000 </v>
    <v>      -0.03719534       0.06442422       0.00000000 </v>
    <v>       0.00000000       0.00000000       0.11736784 </v>
   </varray>
  </crystal>
  <varray name="positions" >
   <v>       0.11111100       0.22222200       0.25000000 </v>
   <v>       0.44444433       0.22222200       0.25000000 </v>
   <v>       0.77777767       0.22222200       0.25000000 </v>
   <v>       0.11111100       0.55555533       0.25000000 </v>
   <v>       0.44444433       0.55555533       0.25000000 </v>
   <v>       0.77777767       0.55555533       0.25000000 </v>
   <v>       0.11111100       0.88888867       0.25000000 </v>
   <v>       0.44444433       0.88888867       0.25000000 </v>
   <v>       0.77777767       0.88888867       0.25000000 </v>
   <v>       0.22222200       0.11111100       0.25000000 </v>
   <v>       0.55555533       0.11111100       0.25000000 </v>
   <v>       0.88888867       0.11111100       0.25000000 </v>
   <v>       0.22222200       0.44444433       0.25000000 </v>
   <v>       0.55555533       0.44444433       0.25000000 </v>
   <v>       0.88888867       0.44444433       0.25000000 </v>
   <v>       0.22222200       0.77777767       0.25000000 </v>
   <v>       0.55555533       0.77777767       0.25000000 </v>
   <v>       0.88888867       0.77777767       0.25000000 </v>
   <v>       0.05289708       0.10579449       0.25000000 </v>
   <v>       0.38623041       0.10579449       0.25000000 </v>
   <v>       0.71956375       0.10579449       0.25000000 </v>
   <v>       0.05289708       0.43912783       0.25000000 </v>
   <v>       0.38623041       0.43912783       0.25000000 </v>
   <v>       0.71956375       0.43912783       0.25000000 </v>
   <v>       0.05289708       0.77246116       0.25000000 </v>
   <v>       0.38623041       0.77246116       0.25000000 </v>
   <v>       0.71956375       0.77246116       0.25000000 </v>
   <v>       0.10579449       0.05289708       0.25000000 </v>
   <v>       0.43912783       0.05289708       0.25000000 </v>
   <v>       0.77246116       0.05289708       0.25000000 </v>
   <v>       0.10579449       0.38623041       0.25000000 </v>
   <v>       0.43912783       0.38623041       0.25000000 </v>
   <v>       0.77246116       0.38623041       0.25000000 </v>
   <v>       0.10579449       0.71956375       0.25000000 </v>
   <v>       0.43912783       0.71956375       0.25000000 </v>
   <v>       0.77246116       0.71956375       0.25000000 </v>
   <v>       0.05289708       0.28043592       0.25000000 </v>
   <v>       0.38623041       0.28043592       0.25000000 </v>
   <v>       0.71956375       0.28043592       0.25000000 </v>
   <v>       0.05289708       0.61376925       0.25000000 </v>
   <v>       0.38623041       0.61376925       0.25000000 </v>
   <v>       0.71956375       0.61376925       0.25000000 </v>
   <v>       0.05289708       0.94710259       0.25000000 </v>
   <v>       0.38623041       0.94710259       0.25000000 </v>
   <v>       0.71956375       0.94710259       0.25000000 </v>
   <v>       0.28043592       0.05289708       0.25000000 </v>
   <v>       0.61376925       0.05289708       0.25000000 </v>
   <v>       0.94710259       0.05289708       0.25000000 </v>
   <v>       0.28043592       0.38623041       0.25000000 </v>
   <v>       0.61376925       0.38623041       0.25000000 </v>
   <v>       0.94710259       0.38623041       0.25000000 </v>
   <v>       0.28043592       0.71956375       0.25000000 </v>
   <v>       0.61376925       0.71956375       0.25000000 </v>
   <v>       0.94710259       0.71956375       0.25000000 </v>
   <v>       0.22753851       0.28043592       0.25000000 </v>
   <v>       0.56087184       0.28043592       0.25000000 </v>
   <v>       0.89420517       0.28043592       0.25000000 </v>
   <v>       0.22753851       0.61376925       0.25000000 </v>
   <v>       0.56087184       0.61376925       0.25000000 </v>
   <v>       0.89420517       0.61376925       0.25000000 </v>
   <v>       0.22753851       0.94710259       0.25000000 </v>
   <v>       0.56087184       0.94710259       0.25000000 </v>
   <v>       0.89420517       0.94710259       0.25000000 </v>
   <v>       0.28043592       0.22753851       0.25000000 </v>
   <v>       0.61376925       0.22753851       0.25000000 </v>
   <v>       0.94710259       0.22753851       0.25000000 </v>
   <v>       0.28043592       0.56087184       0.25000000 </v>
   <v>       0.61376925       0.56087184       0.25000000 </v>
   <v>       0.94710259       0.56087184       0.25000000 </v>
   <v>       0.28043592       0.89420517       0.25000000 </v>
   <v>       0.61376925       0.89420517       0.25000000 </v>
   <v>       0.94710259       0.89420517       0.25000000 </v>
  </varray>
 </structure>
 <calculation>
  <scstep>
   <time name="dav">   23.51   23.51</time>
   <time name="total">   23.94   23.94</time>
   <energy>
    <i name="alphaZ">    231.11290580 </i>
    <i name="ewald">   6302.44197409 </i>
    <i name="hartreedc"> -13722.89562661 </i>
    <i name="XCdc">    820.28457657 </i>
    <i name="pawpsdc">   6643.18808362 </i>
    <i name="pawaedc">  -6658.54023824 </i>
    <i name="eentropy">     -0.07502395 </i>
    <i name="bandstr">   -995.49980013 </i>
    <i name="atom">   9226.83509577 </i>
    <i name="e_fr_energy">   1846.85194692 </i>
    <i name="e_wo_entrp">   1846.92697088 </i>
    <i name="e_0_energy">   1846.88945890 </i>
   </energy>
  </scstep>
  <scstep>
   <time name="dav">   30.97   30.97</time>
   <time name="total">   30.97   30.97</time>
   <energy>
    <i name="e_fr_energy">   -363.21293274 </i>
    <i name="e_wo_entrp">   -363.21293274 </i>
    <i name="e_0_energy">   -363.21293274 </i>
   </energy>
  </scstep>
  <scstep>
   <time name="dav">   26.06   26.06</time>
   <time name="total">   26.06   26.06</time>
   <energy>
    <i name="e_fr_energy">   -650.30765269 </i>
    <i name="e_wo_entrp">   -650.30765269 </i>
    <i name="e_0_energy">   -650.30765269 </i>
   </energy>
  </scstep>
  <scstep>
   <time name="dav">   27.78   27.79</time>
   <time name="total">   27.79   27.79</time>
   <energy>
    <i name="e_fr_energy">   -660.57620311 </i>
    <i name="e_wo_entrp">   -660.57620311 </i>
    <i name="e_0_energy">   -660.57620311 </i>
   </energy>
  </scstep>
  <scstep>
   <time name="dav">   29.08   29.09</time>
   <time name="total">   30.30   30.30</time>
   <energy>
    <i name="e_fr_energy">   -660.95284404 </i>
    <i name="e_wo_entrp">   -660.95284404 </i>
    <i name="e_0_energy">   -660.95284404 </i>
   </energy>
  </scstep>
  <scstep>
   <time name="dav">   25.23   25.23</time>
   <time name="total">   26.87   26.87</time>
   <energy>
    <i name="e_fr_energy">   -620.82310332 </i>
    <i name="e_wo_entrp">   -620.82310332 </i>
    <i name="e_0_energy">   -620.82310332 </i>
   </energy>
  </scstep>
  <scstep>
   <time name="dav">   24.67   24.67</time>
   <time name="total">   26.30   26.30</time>
   <energy>
    <i name="e_fr_energy">   -606.03316030 </i>
    <i name="e_wo_entrp">   -606.03316030 </i>
    <i name="e_0_energy">   -606.03316030 </i>
   </energy>
  </scstep>
  <scstep>
   <time name="dav">   26.09   26.09</time>
   <time name="total">   27.73   27.73</time>
   <energy>
    <i name="e_fr_energy">   -605.21637467 </i>
    <i name="e_wo_entrp">   -605.21637459 </i>
    <i name="e_0_energy">   -605.21637463 </i>
   </energy>
  </scstep>
  <scstep>
   <time name="dav">   25.08   25.08</time>
   <time name="total">   26.72   26.72</time>
   <energy>
    <i name="e_fr_energy">   -605.02107142 </i>
    <i name="e_wo_entrp">   -605.02107128 </i>
    <i name="e_0_energy">   -605.02107135 </i>
   </energy>
  </scstep>
  <scstep>
   <time name="dav">   25.82   25.82</time>
   <time name="total">   27.46   27.46</time>
   <energy>
    <i name="e_fr_energy">   -604.96455891 </i>
    <i name="e_wo_entrp">   -604.96455859 </i>
    <i name="e_0_energy">   -604.96455875 </i>
   </energy>
  </scstep>
  <scstep>
   <time name="dav">   24.36   24.36</time>
   <time name="total">   26.00   26.00</time>
   <energy>
    <i name="e_fr_energy">   -605.00850079 </i>
    <i name="e_wo_entrp">   -605.00850024 </i>
    <i name="e_0_energy">   -605.00850052 </i>
   </energy>
  </scstep>
  <scstep>
   <time name="dav">   24.65   24.65</time>
   <time name="total">   26.29   26.29</time>
   <energy>
    <i name="e_fr_energy">   -605.03548795 </i>
    <i name="e_wo_entrp">   -605.03548731 </i>
    <i name="e_0_energy">   -605.03548763 </i>
   </energy>
  </scstep>
  <scstep>
   <time name="dav">   25.37   25.37</time>
   <time name="total">   27.01   27.01</time>
   <energy>
    <i name="e_fr_energy">   -605.04904650 </i>
    <i name="e_wo_entrp">   -605.04904590 </i>
    <i name="e_0_energy">   -605.04904620 </i>
   </energy>
  </scstep>
  <scstep>
   <time name="dav">   24.36   24.36</time>
   <time name="total">   25.99   25.99</time>
   <energy>
    <i name="e_fr_energy">   -605.05045109 </i>
    <i name="e_wo_entrp">   -605.05045050 </i>
    <i name="e_0_energy">   -605.05045080 </i>
   </energy>
  </scstep>
  <scstep>
   <time name="dav">   25.10   25.10</time>
   <time name="total">   26.74   26.74</time>
   <energy>
    <i name="e_fr_energy">   -605.05063724 </i>
    <i name="e_wo_entrp">   -605.05063665 </i>
    <i name="e_0_energy">   -605.05063695 </i>
   </energy>
  </scstep>
  <scstep>
   <time name="dav">   19.79   19.79</time>
   <time name="total">   21.43   21.43</time>
   <energy>
    <i name="e_fr_energy">   -605.05067051 </i>
    <i name="e_wo_entrp">   -605.05066992 </i>
    <i name="e_0_energy">   -605.05067022 </i>
   </energy>
  </scstep>
  <scstep>
   <time name="dav">   17.50   17.50</time>
   <time name="total">   19.14   19.14</time>
   <energy>
    <i name="e_fr_energy">   -605.05067541 </i>
    <i name="e_wo_entrp">   -605.05067482 </i>
    <i name="e_0_energy">   -605.05067512 </i>
   </energy>
  </scstep>
  <scstep>
   <time name="dav">   17.94   17.94</time>
   <time name="total">   18.36   18.36</time>
   <energy>
    <i name="alphaZ">    231.11290580 </i>
    <i name="ewald">   6302.44197409 </i>
    <i name="hartreedc"> -14820.77769377 </i>
    <i name="XCdc">    864.21838995 </i>
    <i name="pawpsdc">  26049.41376829 </i>
    <i name="pawaedc"> -26072.15867814 </i>
    <i name="eentropy">     -0.00000059 </i>
    <i name="bandstr">  -2386.13643711 </i>
    <i name="atom">   9226.83509577 </i>
    <i name="e_fr_energy">   -605.05067571 </i>
    <i name="e_wo_entrp">   -605.05067512 </i>
    <i name="e_0_energy">   -605.05067541 </i>
   </energy>
  </scstep>
  <structure>
   <crystal>
    <varray name="basis" >
     <v>      13.44254530       7.76105656       0.00000000 </v>
     <v>     -13.44254530       7.76105656       0.00000000 </v>
     <v>       0.00000000       0.00000000       8.52022140 </v>
    </varray>
    <i name="volume">   1777.80135444 </i>
    <varray name="rec_basis" >
     <v>       0.03719534       0.06442422       0.00000000 </v>
     <v>      -0.03719534       0.06442422       0.00000000 </v>
     <v>       0.00000000       0.00000000       0.11736784 </v>
    </varray>
   </crystal>
   <varray name="positions" >
    <v>       0.11111100       0.22222200       0.25000000 </v>
    <v>       0.44444433       0.22222200       0.25000000 </v>
    <v>       0.77777767       0.22222200       0.25000000 </v>
    <v>       0.11111100       0.55555533       0.25000000 </v>
    <v>       0.44444433       0.55555533       0.25000000 </v>
    <v>       0.77777767       0.55555533       0.25000000 </v>
    <v>       0.11111100       0.88888867       0.25000000 </v>
    <v>       0.44444433       0.88888867       0.25000000 </v>
    <v>       0.77777767       0.88888867       0.25000000 </v>
    <v>       0.22222200       0.11111100       0.25000000 </v>
    <v>       0.55555533       0.11111100       0.25000000 </v>
    <v>       0.88888867       0.11111100       0.25000000 </v>
    <v>       0.22222200       0.44444433       0.25000000 </v>
    <v>       0.55555533       0.44444433       0.25000000 </v>
    <v>       0.88888867       0.44444433       0.25000000 </v>
    <v>       0.22222200       0.77777767       0.25000000 </v>
    <v>       0.55555533       0.77777767       0.25000000 </v>
    <v>       0.88888867       0.77777767       0.25000000 </v>
    <v>       0.05289708       0.10579449       0.25000000 </v>
    <v>       0.38623041       0.10579449       0.25000000 </v>
    <v>       0.71956375       0.10579449       0.25000000 </v>
    <v>       0.05289708       0.43912783       0.25000000 </v>
    <v>       0.38623041       0.43912783       0.25000000 </v>
    <v>       0.71956375       0.43912783       0.25000000 </v>
    <v>       0.05289708       0.77246116       0.25000000 </v>
    <v>       0.38623041       0.77246116       0.25000000 </v>
    <v>       0.71956375       0.77246116       0.25000000 </v>
    <v>       0.10579449       0.05289708       0.25000000 </v>
    <v>       0.43912783       0.05289708       0.25000000 </v>
    <v>       0.77246116       0.05289708       0.25000000 </v>
    <v>       0.10579449       0.38623041       0.25000000 </v>
    <v>       0.43912783       0.38623041       0.25000000 </v>
    <v>       0.77246116       0.38623041       0.25000000 </v>
    <v>       0.10579449       0.71956375       0.25000000 </v>
    <v>       0.43912783       0.71956375       0.25000000 </v>
    <v>       0.77246116       0.71956375       0.25000000 </v>
    <v>       0.05289708       0.28043592       0.25000000 </v>
    <v>       0.38623041       0.28043592       0.25000000 </v>
    <v>       0.71956375       0.28043592       0.25000000 </v>
    <v>       0.05289708       0.61376925       0.25000000 </v>
    <v>       0.38623041       0.61376925       0.25000000 </v>
    <v>       0.71956375       0.61376925       0.25000000 </v>
    <v>       0.05289708       0.94710259       0.25000000 </v>
    <v>       0.38623041       0.94710259       0.25000000 </v>
    <v>       0.71956375       0.94710259       0.25000000 </v>
    <v>       0.28043592       0.05289708       0.25000000 </v>
    <v>       0.61376925       0.05289708       0.25000000 </v>
    <v>       0.94710259       0.05289708       0.25000000 </v>
    <v>       0.28043592       0.38623041       0.25000000 </v>
    <v>       0.61376925       0.38623041       0.25000000 </v>
    <v>       0.94710259       0.38623041       0.25000000 </v>
    <v>       0.28043592       0.71956375       0.25000000 </v>
    <v>       0.61376925       0.71956375       0.25000000 </v>
    <v>       0.94710259       0.71956375       0.25000000 </v>
    <v>       0.22753851       0.28043592       0.25000000 </v>
    <v>       0.56087184       0.28043592       0.25000000 </v>
    <v>       0.89420517       0.28043592       0.25000000 </v>
    <v>       0.22753851       0.61376925       0.25000000 </v>
    <v>       0.56087184       0.61376925       0.25000000 </v>
    <v>       0.89420517       0.61376925       0.25000000 </v>
    <v>       0.22753851       0.94710259       0.25000000 </v>
    <v>       0.56087184       0.94710259       0.25000000 </v>
    <v>       0.89420517       0.94710259       0.25000000 </v>
    <v>       0.28043592       0.22753851       0.25000000 </v>
    <v>       0.61376925       0.22753851       0.25000000 </v>
    <v>       0.94710259       0.22753851       0.25000000 </v>
    <v>       0.28043592       0.56087184       0.25000000 </v>
    <v>       0.61376925       0.56087184       0.25000000 </v>
    <v>       0.94710259       0.56087184       0.25000000 </v>
    <v>       0.28043592       0.89420517       0.25000000 </v>
    <v>       0.61376925       0.89420517       0.25000000 </v>
    <v>       0.94710259       0.89420517       0.25000000 </v>
   </varray>
  </structure>
  <varray name="forces" >
   <v>       0.00000000      -0.00000000       0.00000000 </v>
   <v>       0.00000000      -0.00000000       0.00000000 </v>
   <v>       0.00000000      -0.00000000       0.00000000 </v>
   <v>       0.00000000      -0.00000000       0.00000000 </v>
   <v>       0.00000000      -0.00000000       0.00000000 </v>
   <v>       0.00000000      -0.00000000       0.00000000 </v>
   <v>       0.00000000      -0.00000000       0.00000000 </v>
   <v>       0.00000000      -0.00000000       0.00000000 </v>
   <v>       0.00000000      -0.00000000       0.00000000 </v>
   <v>       0.00000000      -0.00000000       0.00000000 </v>
   <v>       0.00000000      -0.00000000       0.00000000 </v>
   <v>       0.00000000      -0.00000000       0.00000000 </v>
   <v>       0.00000000      -0.00000000       0.00000000 </v>
   <v>       0.00000000      -0.00000000       0.00000000 </v>
   <v>       0.00000000      -0.00000000       0.00000000 </v>
   <v>       0.00000000      -0.00000000       0.00000000 </v>
   <v>       0.00000000      -0.00000000       0.00000000 </v>
   <v>       0.00000000      -0.00000000       0.00000000 </v>
   <v>      -0.00065163       0.00112865      -0.00000000 </v>
   <v>      -0.00065163       0.00112865       0.00000000 </v>
   <v>      -0.00065163       0.00112865      -0.00000000 </v>
   <v>      -0.00065163       0.00112865       0.00000000 </v>
   <v>      -0.00065163       0.00112865      -0.00000000 </v>
   <v>      -0.00065163       0.00112865       0.00000000 </v>
   <v>      -0.00065163       0.00112865      -0.00000000 </v>
   <v>      -0.00065163       0.00112865      -0.00000000 </v>
   <v>      -0.00065163       0.00112865       0.00000000 </v>
   <v>       0.00065163       0.00112865      -0.00000000 </v>
   <v>       0.00065163       0.00112865      -0.00000000 </v>
   <v>       0.00065163       0.00112865       0.00000000 </v>
   <v>       0.00065163       0.00112865      -0.00000000 </v>
   <v>       0.00065163       0.00112865      -0.00000000 </v>
   <v>       0.00065163       0.00112865       0.00000000 </v>
   <v>       0.00065163       0.00112865      -0.00000000 </v>
   <v>       0.00065163       0.00112865      -0.00000000 </v>
   <v>       0.00065163       0.00112865       0.00000000 </v>
   <v>       0.00130325      -0.00000000      -0.00000000 </v>
   <v>       0.00130325      -0.00000000       0.00000000 </v>
   <v>       0.00130325      -0.00000000      -0.00000000 </v>
   <v>       0.00130325      -0.00000000       0.00000000 </v>
   <v>       0.00130325      -0.00000000       0.00000000 </v>
   <v>       0.00130325      -0.00000000      -0.00000000 </v>
   <v>       0.00130325      -0.00000000      -0.00000000 </v>
   <v>       0.00130325      -0.00000000       0.00000000 </v>
   <v>       0.00130325      -0.00000000       0.00000000 </v>
   <v>      -0.00130325      -0.00000000       0.00000000 </v>
   <v>      -0.00130325      -0.00000000      -0.00000000 </v>
   <v>      -0.00130325      -0.00000000      -0.00000000 </v>
   <v>      -0.00130325      -0.00000000       0.00000000 </v>
   <v>      -0.00130325      -0.00000000       0.00000000 </v>
   <v>      -0.00130325      -0.00000000      -0.00000000 </v>
   <v>      -0.00130325      -0.00000000      -0.00000000 </v>
   <v>      -0.00130325      -0.00000000       0.00000000 </v>
   <v>      -0.00130325      -0.00000000       0.00000000 </v>
   <v>      -0.00065163      -0.00112865       0.00000000 </v>
   <v>      -0.00065163      -0.00112865      -0.00000000 </v>
   <v>      -0.00065163      -0.00112865       0.00000000 </v>
   <v>      -0.00065163      -0.00112865       0.00000000 </v>
   <v>      -0.00065163      -0.00112865      -0.00000000 </v>
   <v>      -0.00065163      -0.00112865       0.00000000 </v>
   <v>      -0.00065163      -0.00112865      -0.00000000 </v>
   <v>      -0.00065163      -0.00112865      -0.00000000 </v>
   <v>      -0.00065163      -0.00112865      -0.00000000 </v>
   <v>       0.00065163      -0.00112865       0.00000000 </v>
   <v>       0.00065163      -0.00112865       0.00000000 </v>
   <v>       0.00065163      -0.00112865      -0.00000000 </v>
   <v>       0.00065163      -0.00112865       0.00000000 </v>
   <v>       0.00065163      -0.00112865      -0.00000000 </v>
   <v>       0.00065163      -0.00112865      -0.00000000 </v>
   <v>       0.00065163      -0.00112865      -0.00000000 </v>
   <v>       0.00065163      -0.00112865      -0.00000000 </v>
   <v>       0.00065163      -0.00112865       0.00000000 </v>
  </varray>
  <varray name="stress" >
   <v>      -0.54370936       0.00000000      -0.00000000 </v>
   <v>       0.00000000      -0.54370928      -0.00000000 </v>
   <v>       0.00000000       0.00000000      -1.28481052 </v>
  </varray>
  <energy>
   <i name="e_fr_energy">   -605.05067571 </i>
   <i name="e_wo_entrp">   -605.05067541 </i>
   <i name="e_0_energy">     -0.00000059 </i>
  </energy>
  <kpoints>
   <generation param="Gamma">
    <v type="int" name="divisions">       4        4        1 </v>
    <v name="usershift">      0.00000000       0.00000000       0.00000000 </v>
    <v name="genvec1">      0.25000000       0.00000000       0.00000000 </v>
    <v name="genvec2">      0.00000000       0.25000000       0.00000000 </v>
    <v name="genvec3">      0.00000000       0.00000000       1.00000000 </v>
    <v name="shift">      0.00000000       0.00000000       0.00000000 </v>
   </generation>
   <varray name="kpointlist" >
    <v>       0.00000000       0.00000000       0.00000000 </v>
    <v>       0.25000000      -0.00000000       0.00000000 </v>
    <v>       0.50000000      -0.00000000       0.00000000 </v>
    <v>       0.25000000       0.25000000       0.00000000 </v>
    <v>       0.50000000       0.25000000       0.00000000 </v>
    <v>      -0.25000000       0.25000000       0.00000000 </v>
    <v>       0.50000000       0.50000000       0.00000000 </v>
   </varray>
   <varray name="weights" >
    <v>       0.06250000 </v>
    <v>       0.25000000 </v>
    <v>       0.12500000 </v>
    <v>       0.12500000 </v>
    <v>       0.25000000 </v>
    <v>       0.12500000 </v>
    <v>       0.06250000 </v>
   </varray>
  </kpoints>
  <scstep>
   <time name="total">   84.48   84.48</time>
   <energy>
    <i name="e_fr_energy">   -162.56710554 </i>
    <i name="e_wo_entrp">   -162.56710552 </i>
    <i name="e_0_energy">   -162.56710553 </i>
   </energy>
  </scstep>
  <scstep>
   <time name="total">   57.20   57.20</time>
   <energy>
    <i name="e_fr_energy">   -121.99537393 </i>
    <i name="e_wo_entrp">   -121.99537391 </i>
    <i name="e_0_energy">   -121.99537392 </i>
   </energy>
  </scstep>
  <scstep>
   <time name="total">   53.94   53.94</time>
   <energy>
    <i name="e_fr_energy">   -119.61341351 </i>
    <i name="e_wo_entrp">   -119.61341349 </i>
    <i name="e_0_energy">   -119.61341350 </i>
   </energy>
  </scstep>
  <scstep>
   <time name="total">   55.44   55.45</time>
   <energy>
    <i name="e_fr_energy">   -119.42159312 </i>
    <i name="e_wo_entrp">   -119.42159310 </i>
    <i name="e_0_energy">   -119.42159311 </i>
   </energy>
  </scstep>
  <scstep>
   <time name="total">   54.51   54.51</time>
   <energy>
    <i name="e_fr_energy">   -119.34450970 </i>
    <i name="e_wo_entrp">   -119.34450968 </i>
    <i name="e_0_energy">   -119.34450969 </i>
   </energy>
  </scstep>
  <scstep>
   <time name="total">   58.59   58.59</time>
   <energy>
    <i name="e_fr_energy">   -119.34120282 </i>
    <i name="e_wo_entrp">   -119.34120280 </i>
    <i name="e_0_energy">   -119.34120281 </i>
   </energy>
  </scstep>
  <scstep>
   <time name="total">   56.04   56.04</time>
   <energy>
    <i name="e_fr_energy">   -119.34343963 </i>
    <i name="e_wo_entrp">   -119.34343961 </i>
    <i name="e_0_energy">   -119.34343962 </i>
   </energy>
  </scstep>
  <kpoints>
   <generation param="Gamma">
    <v type="int" name="divisions">       4        4        1 </v>
    <v name="usershift">      0.00000000       0.00000000       0.00000000 </v>
    <v name="genvec1">      0.25000000       0.00000000       0.00000000 </v>
    <v name="genvec2">      0.00000000       0.25000000       0.00000000 </v>
    <v name="genvec3">      0.00000000       0.00000000       1.00000000 </v>
    <v name="shift">      0.00000000       0.00000000       0.00000000 </v>
   </generation>
   <varray name="kpointlist" >
    <v>       0.00000000       0.00000000       0.00000000 </v>
    <v>       0.25000000      -0.00000000       0.00000000 </v>
    <v>       0.50000000      -0.00000000       0.00000000 </v>
    <v>       0.25000000       0.25000000       0.00000000 </v>
   </varray>
   <varray name="weights" >
    <v>       0.06250000 </v>
    <v>       0.37500000 </v>
    <v>       0.18750000 </v>
    <v>       0.37500000 </v>
   </varray>
  </kpoints>
  <scstep>
   <time name="total">   38.36   38.36</time>
   <energy>
    <i name="e_fr_energy">    -84.19522371 </i>
    <i name="e_wo_entrp">    -84.19522371 </i>
    <i name="e_0_energy">    -84.19522371 </i>
   </energy>
  </scstep>
  <scstep>
   <time name="total">   33.72   33.72</time>
   <energy>
    <i name="e_fr_energy">    -81.96290149 </i>
    <i name="e_wo_entrp">    -81.96290149 </i>
    <i name="e_0_energy">    -81.96290149 </i>
   </energy>
  </scstep>
  <scstep>
   <time name="total">   31.40   31.40</time>
   <energy>
    <i name="e_fr_energy">    -81.24024063 </i>
    <i name="e_wo_entrp">    -81.24024063 </i>
    <i name="e_0_energy">    -81.24024063 </i>
   </energy>
  </scstep>
  <scstep>
   <time name="total">   32.02   32.02</time>
   <energy>
    <i name="e_fr_energy">    -80.98717797 </i>
    <i name="e_wo_entrp">    -80.98717797 </i>
    <i name="e_0_energy">    -80.98717797 </i>
   </energy>
  </scstep>
  <scstep>
   <time name="total">   33.46   33.46</time>
   <energy>
    <i name="e_fr_energy">    -80.90431901 </i>
    <i name="e_wo_entrp">    -80.90431901 </i>
    <i name="e_0_energy">    -80.90431901 </i>
   </energy>
  </scstep>
  <scstep>
   <time name="total">   34.14   34.14</time>
   <energy>
    <i name="e_fr_energy">    -80.90591177 </i>
    <i name="e_wo_entrp">    -80.90591177 </i>
    <i name="e_0_energy">    -80.90591177 </i>
   </energy>
  </scstep>
  <kpoints>
   <generation param="Gamma">
    <v type="int" name="divisions">       4        4        1 </v>
    <v name="usershift">      0.00000000       0.00000000       0.00000000 </v>
    <v name="genvec1">      0.25000000       0.00000000       0.00000000 </v>
    <v name="genvec2">      0.00000000       0.25000000       0.00000000 </v>
    <v name="genvec3">      0.00000000       0.00000000       1.00000000 </v>
    <v name="shift">      0.00000000       0.00000000       0.00000000 </v>
   </generation>
   <varray name="kpointlist" >
    <v>       0.00000000       0.00000000       0.00000000 </v>
    <v>       0.25000000      -0.00000000       0.00000000 </v>
    <v>       0.50000000      -0.00000000       0.00000000 </v>
    <v>      -0.00000000       0.25000000       0.00000000 </v>
    <v>       0.25000000       0.25000000       0.00000000 </v>
    <v>       0.50000000       0.25000000       0.00000000 </v>
    <v>      -0.25000000       0.25000000       0.00000000 </v>
    <v>      -0.00000000       0.50000000       0.00000000 </v>
    <v>       0.25000000       0.50000000       0.00000000 </v>
    <v>       0.50000000       0.50000000       0.00000000 </v>
   </varray>
   <varray name="weights" >
    <v>       0.06250000 </v>
    <v>       0.12500000 </v>
    <v>       0.06250000 </v>
    <v>       0.12500000 </v>
    <v>       0.12500000 </v>
    <v>       0.12500000 </v>
    <v>       0.12500000 </v>
    <v>       0.06250000 </v>
    <v>       0.12500000 </v>
    <v>       0.06250000 </v>
   </varray>
  </kpoints>
  <scstep>
   <time name="total">  113.40  113.40</time>
   <energy>
    <i name="e_fr_energy">   -373.13373368 </i>
    <i name="e_wo_entrp">   -373.13373496 </i>
    <i name="e_0_energy">   -373.13373432 </i>
   </energy>
  </scstep>
  <scstep>
   <time name="total">   80.59   80.59</time>
   <energy>
    <i name="e_fr_energy">   -321.04933927 </i>
    <i name="e_wo_entrp">   -321.04934050 </i>
    <i name="e_0_energy">   -321.04933988 </i>
   </energy>
  </scstep>
  <scstep>
   <time name="total">   76.95   76.95</time>
   <energy>
    <i name="e_fr_energy">   -316.28149981 </i>
    <i name="e_wo_entrp">   -316.28150058 </i>
    <i name="e_0_energy">   -316.28150020 </i>
   </energy>
  </scstep>
  <scstep>
   <time name="total">   77.46   77.46</time>
   <energy>
    <i name="e_fr_energy">   -315.62575197 </i>
    <i name="e_wo_entrp">   -315.62575265 </i>
    <i name="e_0_energy">   -315.62575231 </i>
   </energy>
  </scstep>
  <scstep>
   <time name="total">   76.08   76.08</time>
   <energy>
    <i name="e_fr_energy">   -315.45585598 </i>
    <i name="e_wo_entrp">   -315.45585667 </i>
    <i name="e_0_energy">   -315.45585632 </i>
   </energy>
  </scstep>
  <scstep>
   <time name="total">   79.93   79.93</time>
   <energy>
    <i name="e_fr_energy">   -315.44996743 </i>
    <i name="e_wo_entrp">   -315.44996813 </i>
    <i name="e_0_energy">   -315.44996778 </i>
   </energy>
  </scstep>
  <scstep>
