 running on   12 total cores
 distrk:  each k-point on   12 cores,    1 groups
 distr:  one band on    1 cores,   12 groups
 using from now: INCAR     
 vasp.5.4.4.18Apr17-6-g9f103f2a35 (build Mar 30 2023 15:39:25) complex          
  
 POSCAR found type information on POSCAR  B  C 
 POSCAR found :  2 types and      72 ions
 scaLAPACK will be used

 ----------------------------------------------------------------------------- 
|                                                                             |
|           W    W    AA    RRRRR   N    N  II  N    N   GGGG   !!!           |
|           W    W   A  A   R    R  NN   N  II  NN   N  G    G  !!!           |
|           W    W  A    A  R    R  N N  N  II  N N  N  G       !!!           |
|           W WW W  AAAAAA  RRRRR   N  N N  II  N  N N  G  GGG   !            |
|           WW  WW  A    A  R   R   N   NN  II  N   NN  G    G                |
|           W    W  A    A  R    R  N    N  II  N    N   GGGG   !!!           |
|                                                                             |
|      For optimal performance we recommend to set                            |
|        NCORE= 4 - approx SQRT( number of cores)                             |
|      NCORE specifies how many cores store one orbital (NPAR=cpu/NCORE).     |
|      This setting can  greatly improve the performance of VASP for DFT.     |
|      The default,   NCORE=1            might be grossly inefficient         |
|      on modern multi-core architectures or massively parallel machines.     |
|      Do your own testing !!!!                                               |
|      Unfortunately you need to use the default for GW and RPA calculations. |
|      (for HF NCORE is supported but not extensively tested yet)             |
|                                                                             |
 ----------------------------------------------------------------------------- 


 ----------------------------------------------------------------------------- 
|                                                                             |
|  ADVICE TO THIS USER RUNNING 'VASP/VAMP'   (HEAR YOUR MASTER'S VOICE ...):  |
|                                                                             |
|      You have a (more or less) 'large supercell' and for larger cells       |
|      it might be more efficient to use real space projection opertators     |
|      So try LREAL= Auto  in the INCAR   file.                               |
|      Mind:          For very  accurate calculation you might also keep the  |
|      reciprocal projection scheme          (i.e. LREAL=.FALSE.)             |
|                                                                             |
 ----------------------------------------------------------------------------- 

 LDA part: xc-table for Pade appr. of Perdew
 POSCAR, INCAR and KPOINTS ok, starting setup
 FFT: planning ...
 WAVECAR not read
 entering main loop
       N       E                     dE             d eps       ncg     rms          rms(c)
DAV:   1     0.184685194692E+04    0.18469E+04   -0.10361E+05  1440   0.109E+03
DAV:   2    -0.363212932738E+03   -0.22101E+04   -0.21192E+04  2064   0.271E+02
DAV:   3    -0.650307652687E+03   -0.28709E+03   -0.28337E+03  1656   0.102E+02
DAV:   4    -0.660576203109E+03   -0.10269E+02   -0.10232E+02  1800   0.226E+01
DAV:   5    -0.660952844042E+03   -0.37664E+00   -0.37635E+00  1908   0.374E+00    0.393E+01
DAV:   6    -0.620823103323E+03    0.40130E+02   -0.45650E+01  1584   0.126E+01    0.223E+01
DAV:   7    -0.606033160299E+03    0.14790E+02   -0.37076E+01  1536   0.110E+01    0.659E+00
DAV:   8    -0.605216374666E+03    0.81679E+00   -0.17525E+00  1656   0.260E+00    0.181E+00
DAV:   9    -0.605021071423E+03    0.19530E+00   -0.19207E-01  1572   0.948E-01    0.598E-01
DAV:  10    -0.604964558911E+03    0.56513E-01   -0.99577E-02  1632   0.508E-01    0.400E-01
DAV:  11    -0.605008500788E+03   -0.43942E-01   -0.64185E-02  1512   0.419E-01    0.160E-01
DAV:  12    -0.605035487946E+03   -0.26987E-01   -0.47432E-03  1536   0.142E-01    0.801E-02
DAV:  13    -0.605049046497E+03   -0.13559E-01   -0.11275E-03  1596   0.802E-02    0.198E-02
DAV:  14    -0.605050451093E+03   -0.14046E-02   -0.75707E-05  1512   0.206E-02    0.790E-03
DAV:  15    -0.605050637244E+03   -0.18615E-03   -0.18746E-05  1572   0.812E-03    0.244E-03
DAV:  16    -0.605050670511E+03   -0.33267E-04   -0.10442E-06  1128   0.217E-03    0.650E-04
DAV:  17    -0.605050675415E+03   -0.49041E-05   -0.26299E-07   936   0.106E-03    0.215E-04
DAV:  18    -0.605050675709E+03   -0.29451E-06   -0.46096E-08   972   0.478E-04
   1 F= -.60505068E+03 E0= -.60505068E+03  d E =-.590769E-06
 Linear response reoptimize wavefunctions to high precision
DAV:   1    -0.605050675703E+03    0.65393E-08   -0.99799E-09  1104   0.213E-04
DAV:   2    -0.605050675703E+03   -0.13097E-09   -0.30262E-09  1104   0.113E-04
DAV:   3    -0.605050675703E+03   -0.58208E-09   -0.13793E-09  1044   0.714E-05
 Linear response DOF=           4
 Linear response progress:
  Degree of freedom:   1/  4
       N       E                     dE             d eps       ncg     rms          rms(c)
RMM:   1    -0.650268422167E-01   -0.65027E-01   -0.42413E-02  7056   0.537E-01
RMM:   2    -0.487981495724E-01    0.16229E-01   -0.61375E-03  4130   0.155E-01    0.215E-01
RMM:   3    -0.478453654035E-01    0.95278E-03   -0.27662E-03  3900   0.834E-02    0.104E-01
RMM:   4    -0.477686372469E-01    0.76728E-04   -0.15257E-04  4038   0.221E-02    0.520E-02
RMM:   5    -0.477378038804E-01    0.30833E-04   -0.88337E-05  3915   0.163E-02    0.738E-03
RMM:   6    -0.477364811286E-01    0.13228E-05   -0.33096E-06  4306   0.309E-03    0.288E-03
RMM:   7    -0.477373758529E-01   -0.89472E-06   -0.23905E-06  4039   0.173E-03    0.880E-04
 force on displaced ion       1 direction 1 : -40.390  -0.000   0.000
 Linear response progress:
  Degree of freedom:   2/  4
       N       E                     dE             d eps       ncg     rms          rms(c)
RMM:   1    -0.336780894842E-01   -0.33678E-01   -0.11753E-02  2840   0.330E-01
RMM:   2    -0.327851605969E-01    0.89293E-03   -0.92518E-04  2353   0.642E-02    0.183E-01
RMM:   3    -0.324960962532E-01    0.28906E-03   -0.31932E-04  2179   0.328E-02    0.101E-01
RMM:   4    -0.323948711889E-01    0.10123E-03   -0.26282E-04  2201   0.313E-02    0.200E-02
RMM:   5    -0.323617276027E-01    0.33144E-04   -0.28686E-05  2247   0.106E-02    0.320E-03
RMM:   6    -0.323623647081E-01   -0.63711E-06   -0.10376E-06  2423   0.179E-03    0.106E-03
 force on displaced ion       1 direction 3 :   0.000   0.000 -12.398
 Linear response progress:
  Degree of freedom:   3/  4
       N       E                     dE             d eps       ncg     rms          rms(c)
RMM:   1    -0.149253493473E+00   -0.14925E+00    0.92149E-02  9337   0.863E-01
RMM:   2    -0.128419735707E+00    0.20834E-01   -0.10888E-02  5875   0.221E-01    0.267E-01
RMM:   3    -0.126512599925E+00    0.19071E-02   -0.47057E-03  5611   0.108E-01    0.130E-01
RMM:   4    -0.126250300787E+00    0.26230E-03   -0.44447E-04  5670   0.369E-02    0.574E-02
RMM:   5    -0.126182342391E+00    0.67958E-04   -0.94341E-05  5483   0.172E-02    0.100E-02
RMM:   6    -0.126179986971E+00    0.23554E-05   -0.29804E-06  5936   0.354E-03    0.308E-03
RMM:   7    -0.126180969232E+00   -0.98226E-06   -0.47099E-07  5908   0.145E-03    0.802E-04
 force on displaced ion      19 direction 1 : -54.539  -0.808   0.000
 Linear response progress:
  Degree of freedom:   4/  4
       N       E                     dE             d eps       ncg     rms          rms(c)
RMM:   1    -0.111606644581E+00   -0.11161E+00    0.10160E-02  4691   0.601E-01
RMM:   2    -0.110684999162E+00    0.92165E-03   -0.26573E-03  4073   0.989E-02    0.235E-01
RMM:   3    -0.109607472748E+00    0.10775E-02   -0.80681E-04  3288   0.547E-02    0.121E-01
RMM:   4    -0.109254628742E+00    0.35284E-03   -0.65091E-04  3566   0.470E-02    0.233E-02
RMM:   5    -0.109235610362E+00    0.19018E-04   -0.28311E-05  3834   0.106E-02    0.341E-03
RMM:   6    -0.109230977993E+00    0.46324E-05   -0.20161E-06  4292   0.230E-03    0.151E-03
RMM:   7    -0.109232275774E+00   -0.12978E-05   -0.13053E-07  3802   0.810E-04    0.258E-04
RMM:   8    -0.109232467235E+00   -0.19146E-06    0.16117E-08  4276   0.204E-04    0.760E-05
 force on displaced ion      19 direction 3 :  -0.000   0.000 -11.228
 Linear response finished
 writing wavefunctions
