BC3                                     
           1
    13.442545    7.761057    0.000000
   -13.442545    7.761057    0.000000
     0.000000    0.000000    8.520221
   B    C 
  18  54
Direct configuration=     1
   0.11111100  0.22222200  0.25000000
   0.44444433  0.22222200  0.25000000
   0.77777767  0.22222200  0.25000000
   0.11111100  0.55555533  0.25000000
   0.44444433  0.55555533  0.25000000
   0.77777767  0.55555533  0.25000000
   0.11111100  0.88888867  0.25000000
   0.44444433  0.88888867  0.25000000
   0.77777767  0.88888867  0.25000000
   0.22222200  0.11111100  0.25000000
   0.55555533  0.11111100  0.25000000
   0.88888867  0.11111100  0.25000000
   0.22222200  0.44444433  0.25000000
   0.55555533  0.44444433  0.25000000
   0.88888867  0.44444433  0.25000000
   0.22222200  0.77777767  0.25000000
   0.55555533  0.77777767  0.25000000
   0.88888867  0.77777767  0.25000000
   0.05289708  0.10579449  0.25000000
   0.38623041  0.10579449  0.25000000
   0.71956375  0.10579449  0.25000000
   0.05289708  0.43912783  0.25000000
   0.38623041  0.43912783  0.25000000
   0.71956375  0.43912783  0.25000000
   0.05289708  0.77246116  0.25000000
   0.38623041  0.77246116  0.25000000
   0.71956375  0.77246116  0.25000000
   0.10579449  0.05289708  0.25000000
   0.43912783  0.05289708  0.25000000
   0.77246116  0.05289708  0.25000000
   0.10579449  0.38623041  0.25000000
   0.43912783  0.38623041  0.25000000
   0.77246116  0.38623041  0.25000000
   0.10579449  0.71956375  0.25000000
   0.43912783  0.71956375  0.25000000
   0.77246116  0.71956375  0.25000000
   0.05289708  0.28043592  0.25000000
   0.38623041  0.28043592  0.25000000
   0.71956375  0.28043592  0.25000000
   0.05289708  0.61376925  0.25000000
   0.38623041  0.61376925  0.25000000
   0.71956375  0.61376925  0.25000000
   0.05289708  0.94710259  0.25000000
   0.38623041  0.94710259  0.25000000
   0.71956375  0.94710259  0.25000000
   0.28043592  0.05289708  0.25000000
   0.61376925  0.05289708  0.25000000
   0.94710259  0.05289708  0.25000000
   0.28043592  0.38623041  0.25000000
   0.61376925  0.38623041  0.25000000
   0.94710259  0.38623041  0.25000000
   0.28043592  0.71956375  0.25000000
   0.61376925  0.71956375  0.25000000
   0.94710259  0.71956375  0.25000000
   0.22753851  0.28043592  0.25000000
   0.56087184  0.28043592  0.25000000
   0.89420517  0.28043592  0.25000000
   0.22753851  0.61376925  0.25000000
   0.56087184  0.61376925  0.25000000
   0.89420517  0.61376925  0.25000000
   0.22753851  0.94710259  0.25000000
   0.56087184  0.94710259  0.25000000
   0.89420517  0.94710259  0.25000000
   0.28043592  0.22753851  0.25000000
   0.61376925  0.22753851  0.25000000
   0.94710259  0.22753851  0.25000000
   0.28043592  0.56087184  0.25000000
   0.61376925  0.56087184  0.25000000
   0.94710259  0.56087184  0.25000000
   0.28043592  0.89420517  0.25000000
   0.61376925  0.89420517  0.25000000
   0.94710259  0.89420517  0.25000000
