   8   8   0   0
  0.4348128E+02  0.5174700E-09  0.5174700E-09  0.1500000E-08  0.5000000E-15
  1.000000000000000E-004
  CAR 
 BC3                                     
      8.29262611    -19.80156580  301     -2.13305295      1.00000000
    -19.802  0.0000E+00  0.0000E+00
    -19.708  0.0000E+00  0.0000E+00
    -19.614  0.0000E+00  0.0000E+00
    -19.521  0.0000E+00  0.0000E+00
    -19.427  0.0000E+00  0.0000E+00
    -19.333  0.0000E+00  0.0000E+00
    -19.240  0.0000E+00  0.0000E+00
    -19.146  0.0000E+00  0.0000E+00
    -19.052  0.6303E-16  0.5903E-17
    -18.959  0.7169E-12  0.6714E-13
    -18.865  0.1554E-08  0.1456E-09
    -18.771  0.6624E-06  0.6218E-07
    -18.678  0.5842E-04  0.5533E-05
    -18.584  0.1175E-02  0.1156E-03
    -18.491  0.6438E-02  0.7185E-03
    -18.397  0.1310E-01  0.1945E-02
    -18.303  0.1602E-01  0.3445E-02
    -18.210  0.1780E-01  0.5112E-02
    -18.116  0.2072E-01  0.7053E-02
    -18.022  0.2748E-01  0.9626E-02
    -17.929  0.3411E-01  0.1282E-01
    -17.835  0.2344E-01  0.1502E-01
    -17.741  0.6036E-02  0.1558E-01
    -17.648  0.4684E-03  0.1562E-01
    -17.554  0.9056E-05  0.1562E-01
    -17.460  0.3836E-07  0.1562E-01
    -17.367  0.3321E-10  0.1562E-01
    -17.273  0.5624E-14  0.1562E-01
    -17.179  0.0000E+00  0.1562E-01
    -17.086  0.0000E+00  0.1562E-01
    -16.992  0.0000E+00  0.1562E-01
    -16.898  0.0000E+00  0.1562E-01
    -16.805  0.1544E-16  0.1562E-01
    -16.711  0.2300E-12  0.1563E-01
    -16.618  0.6233E-09  0.1563E-01
    -16.524  0.3285E-06  0.1563E-01
    -16.430  0.3679E-04  0.1563E-01
    -16.337  0.9870E-03  0.1572E-01
    -16.243  0.7226E-02  0.1640E-01
    -16.149  0.1794E-01  0.1808E-01
    -16.056  0.2478E-01  0.2040E-01
    -15.962  0.2389E-01  0.2264E-01
    -15.868  0.1748E-01  0.2427E-01
    -15.775  0.1391E-01  0.2557E-01
    -15.681  0.1532E-01  0.2701E-01
    -15.587  0.1571E-01  0.2848E-01
    -15.494  0.1452E-01  0.2984E-01
    -15.400  0.1740E-01  0.3147E-01
    -15.306  0.1987E-01  0.3333E-01
    -15.213  0.2102E-01  0.3530E-01
    -15.119  0.2559E-01  0.3770E-01
    -15.026  0.2850E-01  0.4036E-01
    -14.932  0.2239E-01  0.4246E-01
    -14.838  0.1676E-01  0.4403E-01
    -14.745  0.1453E-01  0.4539E-01
    -14.651  0.1088E-01  0.4641E-01
    -14.557  0.4256E-02  0.4681E-01
    -14.464  0.6696E-03  0.4687E-01
    -14.370  0.2944E-04  0.4687E-01
    -14.276  0.2959E-06  0.4687E-01
    -14.183  0.6148E-09  0.4687E-01
    -14.089  0.2468E-12  0.4687E-01
    -13.995  0.1801E-16  0.4687E-01
    -13.902  0.0000E+00  0.4687E-01
    -13.808  0.0000E+00  0.4687E-01
    -13.714  0.0000E+00  0.4687E-01
    -13.621  0.0000E+00  0.4687E-01
    -13.527  0.0000E+00  0.4687E-01
    -13.434  0.0000E+00  0.4687E-01
    -13.340  0.9964E-15  0.4688E-01
    -13.246  0.7550E-11  0.4688E-01
    -13.153  0.1068E-07  0.4688E-01
    -13.059  0.2920E-05  0.4688E-01
    -12.965  0.1623E-03  0.4689E-01
    -12.872  0.2019E-02  0.4708E-01
    -12.778  0.7409E-02  0.4777E-01
    -12.684  0.1494E-01  0.4917E-01
    -12.591  0.2073E-01  0.5111E-01
    -12.497  0.1885E-01  0.5288E-01
    -12.403  0.2037E-01  0.5479E-01
    -12.310  0.3018E-01  0.5761E-01
    -12.216  0.2642E-01  0.6009E-01
    -12.122  0.1074E-01  0.6109E-01
    -12.029  0.7915E-02  0.6183E-01
    -11.935  0.1131E-01  0.6289E-01
    -11.842  0.1526E-01  0.6432E-01
    -11.748  0.1270E-01  0.6551E-01
    -11.654  0.6790E-02  0.6615E-01
    -11.561  0.5315E-02  0.6665E-01
    -11.467  0.1287E-01  0.6785E-01
    -11.373  0.1926E-01  0.6965E-01
    -11.280  0.1219E-01  0.7080E-01
    -11.186  0.1021E-01  0.7175E-01
    -11.092  0.1486E-01  0.7314E-01
    -10.999  0.1895E-01  0.7492E-01
    -10.905  0.1237E-01  0.7608E-01
    -10.811  0.8698E-02  0.7689E-01
    -10.718  0.1168E-01  0.7799E-01
    -10.624  0.1423E-01  0.7932E-01
    -10.530  0.6594E-02  0.7994E-01
    -10.437  0.2747E-02  0.8019E-01
    -10.343  0.4908E-02  0.8065E-01
    -10.250  0.7242E-02  0.8133E-01
    -10.156  0.5025E-02  0.8180E-01
    -10.062  0.2987E-02  0.8208E-01
     -9.969  0.7935E-03  0.8216E-01
     -9.875  0.1062E-02  0.8225E-01
     -9.781  0.5860E-02  0.8280E-01
     -9.688  0.1361E-01  0.8408E-01
     -9.594  0.9251E-02  0.8494E-01
     -9.500  0.7115E-02  0.8561E-01
     -9.407  0.9645E-02  0.8651E-01
     -9.313  0.1177E-01  0.8762E-01
     -9.219  0.8452E-02  0.8841E-01
     -9.126  0.1256E-01  0.8958E-01
     -9.032  0.2140E-01  0.9159E-01
     -8.938  0.2251E-01  0.9370E-01
     -8.845  0.1810E-01  0.9539E-01
     -8.751  0.1227E-01  0.9654E-01
     -8.658  0.8811E-02  0.9737E-01
     -8.564  0.4906E-02  0.9782E-01
     -8.470  0.1114E-01  0.9887E-01
     -8.377  0.2970E-01  0.1016E+00
     -8.283  0.3316E-01  0.1048E+00
     -8.189  0.1650E-01  0.1063E+00
     -8.096  0.5851E-02  0.1068E+00
     -8.002  0.1045E-01  0.1078E+00
     -7.908  0.1806E-01  0.1095E+00
     -7.815  0.1531E-01  0.1110E+00
     -7.721  0.1331E-01  0.1122E+00
     -7.627  0.2217E-01  0.1143E+00
     -7.534  0.2965E-01  0.1171E+00
     -7.440  0.1603E-01  0.1186E+00
     -7.346  0.1226E-01  0.1197E+00
     -7.253  0.2414E-01  0.1220E+00
     -7.159  0.2504E-01  0.1243E+00
     -7.066  0.1841E-01  0.1260E+00
     -6.972  0.1949E-01  0.1279E+00
     -6.878  0.1603E-01  0.1294E+00
     -6.785  0.1589E-01  0.1308E+00
     -6.691  0.1754E-01  0.1325E+00
     -6.597  0.2456E-01  0.1348E+00
     -6.504  0.3463E-01  0.1380E+00
     -6.410  0.3223E-01  0.1410E+00
     -6.316  0.2842E-01  0.1437E+00
     -6.223  0.3404E-01  0.1469E+00
     -6.129  0.2996E-01  0.1497E+00
     -6.035  0.1755E-01  0.1513E+00
     -5.942  0.1344E-01  0.1526E+00
     -5.848  0.1686E-01  0.1542E+00
     -5.754  0.1245E-01  0.1553E+00
     -5.661  0.1378E-01  0.1566E+00
     -5.567  0.1571E-01  0.1581E+00
     -5.474  0.1102E-01  0.1591E+00
     -5.380  0.1384E-01  0.1604E+00
     -5.286  0.1900E-01  0.1622E+00
     -5.193  0.2675E-01  0.1647E+00
     -5.099  0.3883E-01  0.1684E+00
     -5.005  0.6231E-01  0.1742E+00
     -4.912  0.5922E-01  0.1797E+00
     -4.818  0.4275E-01  0.1837E+00
     -4.724  0.3114E-01  0.1867E+00
     -4.631  0.1459E-01  0.1880E+00
     -4.537  0.1476E-01  0.1894E+00
     -4.443  0.2480E-01  0.1917E+00
     -4.350  0.2627E-01  0.1942E+00
     -4.256  0.1554E-01  0.1956E+00
     -4.162  0.1122E-01  0.1967E+00
     -4.069  0.2012E-01  0.1986E+00
     -3.975  0.3030E-01  0.2014E+00
     -3.882  0.2851E-01  0.2041E+00
     -3.788  0.2436E-01  0.2064E+00
     -3.694  0.2075E-01  0.2083E+00
     -3.601  0.3494E-01  0.2116E+00
     -3.507  0.4156E-01  0.2155E+00
     -3.413  0.3203E-01  0.2185E+00
     -3.320  0.3495E-01  0.2217E+00
     -3.226  0.3798E-01  0.2253E+00
     -3.132  0.2477E-01  0.2276E+00
     -3.039  0.1067E-01  0.2286E+00
     -2.945  0.1227E-01  0.2298E+00
     -2.851  0.1304E-01  0.2310E+00
     -2.758  0.7620E-02  0.2317E+00
     -2.664  0.7990E-02  0.2325E+00
     -2.570  0.9418E-02  0.2333E+00
     -2.477  0.7258E-02  0.2340E+00
     -2.383  0.3207E-02  0.2343E+00
     -2.290  0.5695E-03  0.2344E+00
     -2.196  0.3063E-04  0.2344E+00
     -2.102  0.4582E-06  0.2344E+00
     -2.009  0.1063E-04  0.2344E+00
     -1.915  0.3616E-03  0.2344E+00
     -1.821  0.2820E-02  0.2347E+00
     -1.728  0.6186E-02  0.2353E+00
     -1.634  0.8899E-02  0.2361E+00
     -1.540  0.1618E-01  0.2376E+00
     -1.447  0.1896E-01  0.2394E+00
     -1.353  0.1400E-01  0.2407E+00
     -1.259  0.1476E-01  0.2421E+00
     -1.166  0.2065E-01  0.2440E+00
     -1.072  0.2109E-01  0.2460E+00
     -0.978  0.1039E-01  0.2470E+00
     -0.885  0.4716E-02  0.2474E+00
     -0.791  0.6811E-02  0.2480E+00
     -0.698  0.4289E-02  0.2484E+00
     -0.604  0.5833E-02  0.2490E+00
     -0.510  0.6677E-02  0.2496E+00
     -0.417  0.1798E-02  0.2498E+00
     -0.323  0.1024E-03  0.2498E+00
     -0.229  0.1193E-04  0.2498E+00
     -0.136  0.2966E-03  0.2498E+00
     -0.042  0.1680E-02  0.2500E+00
      0.052  0.2063E-02  0.2502E+00
      0.145  0.5530E-03  0.2502E+00
      0.239  0.3131E-04  0.2502E+00
      0.333  0.3975E-04  0.2502E+00
      0.426  0.1003E-02  0.2503E+00
      0.520  0.5274E-02  0.2508E+00
      0.614  0.6137E-02  0.2514E+00
      0.707  0.2899E-02  0.2517E+00
      0.801  0.3484E-02  0.2520E+00
      0.894  0.2052E-02  0.2522E+00
      0.988  0.4568E-02  0.2526E+00
      1.082  0.1819E-01  0.2543E+00
      1.175  0.2314E-01  0.2565E+00
      1.269  0.1787E-01  0.2581E+00
      1.363  0.1610E-01  0.2597E+00
      1.456  0.1552E-01  0.2611E+00
      1.550  0.1452E-01  0.2625E+00
      1.644  0.1500E-01  0.2639E+00
      1.737  0.9467E-02  0.2648E+00
      1.831  0.7526E-02  0.2655E+00
      1.925  0.1337E-01  0.2667E+00
      2.018  0.1695E-01  0.2683E+00
      2.112  0.1337E-01  0.2696E+00
      2.206  0.1318E-01  0.2708E+00
      2.299  0.1344E-01  0.2720E+00
      2.393  0.1542E-01  0.2735E+00
      2.486  0.1757E-01  0.2751E+00
      2.580  0.1501E-01  0.2765E+00
      2.674  0.1410E-01  0.2779E+00
      2.767  0.1275E-01  0.2791E+00
      2.861  0.2170E-01  0.2811E+00
      2.955  0.2165E-01  0.2831E+00
      3.048  0.1534E-01  0.2846E+00
      3.142  0.1343E-01  0.2858E+00
      3.236  0.1437E-01  0.2872E+00
      3.329  0.2235E-01  0.2892E+00
      3.423  0.2361E-01  0.2915E+00
      3.517  0.1253E-01  0.2926E+00
      3.610  0.1001E-01  0.2936E+00
      3.704  0.1092E-01  0.2946E+00
      3.798  0.1485E-01  0.2960E+00
      3.891  0.2056E-01  0.2979E+00
      3.985  0.2022E-01  0.2998E+00
      4.078  0.1438E-01  0.3011E+00
      4.172  0.1168E-01  0.3022E+00
      4.266  0.1337E-01  0.3035E+00
      4.359  0.1281E-01  0.3047E+00
      4.453  0.1543E-01  0.3061E+00
      4.547  0.1845E-01  0.3079E+00
      4.640  0.1693E-01  0.3095E+00
      4.734  0.2091E-01  0.3114E+00
      4.828  0.2727E-01  0.3140E+00
      4.921  0.2276E-01  0.3161E+00
      5.015  0.1539E-01  0.3175E+00
      5.109  0.1777E-01  0.3192E+00
      5.202  0.2907E-01  0.3219E+00
      5.296  0.2765E-01  0.3245E+00
      5.390  0.1610E-01  0.3260E+00
      5.483  0.1559E-01  0.3275E+00
      5.577  0.2286E-01  0.3296E+00
      5.671  0.2781E-01  0.3322E+00
      5.764  0.2282E-01  0.3344E+00
      5.858  0.1927E-01  0.3362E+00
      5.951  0.2391E-01  0.3384E+00
      6.045  0.2795E-01  0.3410E+00
      6.139  0.2707E-01  0.3436E+00
      6.232  0.2752E-01  0.3461E+00
      6.326  0.2559E-01  0.3485E+00
      6.420  0.2857E-01  0.3512E+00
      6.513  0.3691E-01  0.3547E+00
      6.607  0.4757E-01  0.3591E+00
      6.701  0.4070E-01  0.3629E+00
      6.794  0.3964E-01  0.3666E+00
      6.888  0.3486E-01  0.3699E+00
      6.982  0.2501E-01  0.3722E+00
      7.075  0.2233E-01  0.3743E+00
      7.169  0.6634E-02  0.3750E+00
      7.263  0.4442E-03  0.3750E+00
      7.356  0.6131E-05  0.3750E+00
      7.450  0.1650E-07  0.3750E+00
      7.543  0.8349E-11  0.3750E+00
      7.637  0.7772E-15  0.3750E+00
      7.731  0.0000E+00  0.3750E+00
      7.824  0.0000E+00  0.3750E+00
      7.918  0.0000E+00  0.3750E+00
      8.012  0.0000E+00  0.3750E+00
      8.105  0.0000E+00  0.3750E+00
      8.199  0.0000E+00  0.3750E+00
      8.293  0.0000E+00  0.3750E+00
