   8   8   0   0
  0.4348128E+02  0.5174700E-09  0.5174700E-09  0.1500000E-08  0.5000000E-15
  1.000000000000000E-004
  CAR 
 BC3                                     
      8.28704860    -19.81468059  301     -2.14656738      1.00000000
    -19.815  0.0000E+00  0.0000E+00
    -19.721  0.0000E+00  0.0000E+00
    -19.627  0.0000E+00  0.0000E+00
    -19.534  0.0000E+00  0.0000E+00
    -19.440  0.0000E+00  0.0000E+00
    -19.346  0.0000E+00  0.0000E+00
    -19.253  0.0000E+00  0.0000E+00
    -19.159  0.0000E+00  0.0000E+00
    -19.065  0.6192E-16  0.5800E-17
    -18.972  0.7094E-12  0.6645E-13
    -18.878  0.1543E-08  0.1446E-09
    -18.784  0.6599E-06  0.6196E-07
    -18.691  0.5833E-04  0.5526E-05
    -18.597  0.1174E-02  0.1155E-03
    -18.503  0.6440E-02  0.7188E-03
    -18.410  0.1310E-01  0.1946E-02
    -18.316  0.1603E-01  0.3448E-02
    -18.222  0.1781E-01  0.5116E-02
    -18.129  0.2074E-01  0.7059E-02
    -18.035  0.2752E-01  0.9637E-02
    -17.941  0.3412E-01  0.1283E-01
    -17.848  0.2336E-01  0.1502E-01
    -17.754  0.5983E-02  0.1558E-01
    -17.660  0.4610E-03  0.1562E-01
    -17.567  0.8837E-05  0.1562E-01
    -17.473  0.3706E-07  0.1562E-01
    -17.379  0.3173E-10  0.1562E-01
    -17.286  0.5307E-14  0.1562E-01
    -17.192  0.0000E+00  0.1562E-01
    -17.098  0.0000E+00  0.1562E-01
    -17.005  0.0000E+00  0.1562E-01
    -16.911  0.0000E+00  0.1562E-01
    -16.817  0.1620E-16  0.1562E-01
    -16.723  0.2406E-12  0.1563E-01
    -16.630  0.6475E-09  0.1563E-01
    -16.536  0.3389E-06  0.1563E-01
    -16.442  0.3767E-04  0.1563E-01
    -16.349  0.1003E-02  0.1572E-01
    -16.255  0.7293E-02  0.1641E-01
    -16.161  0.1801E-01  0.1809E-01
    -16.068  0.2481E-01  0.2042E-01
    -15.974  0.2385E-01  0.2265E-01
    -15.880  0.1744E-01  0.2429E-01
    -15.787  0.1390E-01  0.2559E-01
    -15.693  0.1536E-01  0.2703E-01
    -15.599  0.1568E-01  0.2850E-01
    -15.506  0.1454E-01  0.2986E-01
    -15.412  0.1744E-01  0.3149E-01
    -15.318  0.1990E-01  0.3335E-01
    -15.225  0.2104E-01  0.3533E-01
    -15.131  0.2569E-01  0.3773E-01
    -15.037  0.2847E-01  0.4040E-01
    -14.944  0.2230E-01  0.4249E-01
    -14.850  0.1671E-01  0.4405E-01
    -14.756  0.1452E-01  0.4541E-01
    -14.663  0.1077E-01  0.4642E-01
    -14.569  0.4157E-02  0.4681E-01
    -14.475  0.6407E-03  0.4687E-01
    -14.382  0.2742E-04  0.4687E-01
    -14.288  0.2676E-06  0.4687E-01
    -14.194  0.5383E-09  0.4687E-01
    -14.101  0.2088E-12  0.4687E-01
    -14.007  0.1453E-16  0.4687E-01
    -13.913  0.0000E+00  0.4687E-01
    -13.820  0.0000E+00  0.4687E-01
    -13.726  0.0000E+00  0.4687E-01
    -13.632  0.0000E+00  0.4687E-01
    -13.539  0.0000E+00  0.4687E-01
    -13.445  0.0000E+00  0.4687E-01
    -13.351  0.1161E-14  0.4688E-01
    -13.258  0.8587E-11  0.4688E-01
    -13.164  0.1185E-07  0.4688E-01
    -13.070  0.3160E-05  0.4688E-01
    -12.977  0.1713E-03  0.4689E-01
    -12.883  0.2083E-02  0.4709E-01
    -12.789  0.7524E-02  0.4779E-01
    -12.696  0.1510E-01  0.4921E-01
    -12.602  0.2075E-01  0.5115E-01
    -12.508  0.1880E-01  0.5291E-01
    -12.415  0.2051E-01  0.5483E-01
    -12.321  0.3035E-01  0.5767E-01
    -12.227  0.2610E-01  0.6012E-01
    -12.134  0.1053E-01  0.6111E-01
    -12.040  0.7968E-02  0.6185E-01
    -11.946  0.1142E-01  0.6292E-01
    -11.853  0.1529E-01  0.6435E-01
    -11.759  0.1256E-01  0.6553E-01
    -11.665  0.6686E-02  0.6616E-01
    -11.572  0.5396E-02  0.6666E-01
    -11.478  0.1313E-01  0.6789E-01
    -11.384  0.1922E-01  0.6969E-01
    -11.290  0.1201E-01  0.7082E-01
    -11.197  0.1028E-01  0.7178E-01
    -11.103  0.1503E-01  0.7319E-01
    -11.009  0.1890E-01  0.7496E-01
    -10.916  0.1217E-01  0.7610E-01
    -10.822  0.8693E-02  0.7691E-01
    -10.728  0.1184E-01  0.7802E-01
    -10.635  0.1414E-01  0.7935E-01
    -10.541  0.6377E-02  0.7995E-01
    -10.447  0.2728E-02  0.8020E-01
    -10.354  0.5014E-02  0.8067E-01
    -10.260  0.7214E-02  0.8135E-01
    -10.166  0.4973E-02  0.8181E-01
    -10.073  0.2914E-02  0.8208E-01
     -9.979  0.7655E-03  0.8216E-01
     -9.885  0.1112E-02  0.8226E-01
     -9.792  0.6114E-02  0.8283E-01
     -9.698  0.1368E-01  0.8411E-01
     -9.604  0.9056E-02  0.8496E-01
     -9.511  0.7162E-02  0.8563E-01
     -9.417  0.9721E-02  0.8654E-01
     -9.323  0.1175E-01  0.8764E-01
     -9.230  0.8386E-02  0.8843E-01
     -9.136  0.1290E-01  0.8964E-01
     -9.042  0.2152E-01  0.9165E-01
     -8.949  0.2247E-01  0.9376E-01
     -8.855  0.1787E-01  0.9543E-01
     -8.761  0.1216E-01  0.9657E-01
     -8.668  0.8675E-02  0.9738E-01
     -8.574  0.4871E-02  0.9784E-01
     -8.480  0.1167E-01  0.9893E-01
     -8.387  0.3024E-01  0.1018E+00
     -8.293  0.3281E-01  0.1048E+00
     -8.199  0.1587E-01  0.1063E+00
     -8.106  0.5798E-02  0.1069E+00
     -8.012  0.1078E-01  0.1079E+00
     -7.918  0.1816E-01  0.1096E+00
     -7.825  0.1511E-01  0.1110E+00
     -7.731  0.1343E-01  0.1123E+00
     -7.637  0.2270E-01  0.1144E+00
     -7.544  0.2947E-01  0.1171E+00
     -7.450  0.1545E-01  0.1186E+00
     -7.356  0.1258E-01  0.1198E+00
     -7.263  0.2448E-01  0.1221E+00
     -7.169  0.2475E-01  0.1244E+00
     -7.075  0.1832E-01  0.1261E+00
     -6.982  0.1950E-01  0.1279E+00
     -6.888  0.1585E-01  0.1294E+00
     -6.794  0.1596E-01  0.1309E+00
     -6.701  0.1767E-01  0.1326E+00
     -6.607  0.2499E-01  0.1349E+00
     -6.513  0.3487E-01  0.1382E+00
     -6.420  0.3189E-01  0.1412E+00
     -6.326  0.2855E-01  0.1438E+00
     -6.232  0.3416E-01  0.1470E+00
     -6.139  0.2955E-01  0.1498E+00
     -6.045  0.1709E-01  0.1514E+00
     -5.951  0.1363E-01  0.1527E+00
     -5.857  0.1682E-01  0.1542E+00
     -5.764  0.1226E-01  0.1554E+00
     -5.670  0.1405E-01  0.1567E+00
     -5.576  0.1551E-01  0.1582E+00
     -5.483  0.1100E-01  0.1592E+00
     -5.389  0.1400E-01  0.1605E+00
     -5.295  0.1930E-01  0.1623E+00
     -5.202  0.2703E-01  0.1648E+00
     -5.108  0.3980E-01  0.1686E+00
     -5.014  0.6299E-01  0.1745E+00
     -4.921  0.5837E-01  0.1799E+00
     -4.827  0.4230E-01  0.1839E+00
     -4.733  0.3036E-01  0.1867E+00
     -4.640  0.1414E-01  0.1881E+00
     -4.546  0.1512E-01  0.1895E+00
     -4.452  0.2526E-01  0.1919E+00
     -4.359  0.2589E-01  0.1943E+00
     -4.265  0.1508E-01  0.1957E+00
     -4.171  0.1135E-01  0.1968E+00
     -4.078  0.2079E-01  0.1987E+00
     -3.984  0.3044E-01  0.2016E+00
     -3.890  0.2834E-01  0.2042E+00
     -3.797  0.2406E-01  0.2065E+00
     -3.703  0.2101E-01  0.2084E+00
     -3.609  0.3581E-01  0.2118E+00
     -3.516  0.4119E-01  0.2156E+00
     -3.422  0.3181E-01  0.2186E+00
     -3.328  0.3536E-01  0.2219E+00
     -3.235  0.3772E-01  0.2255E+00
     -3.141  0.2379E-01  0.2277E+00
     -3.047  0.1043E-01  0.2287E+00
     -2.954  0.1253E-01  0.2298E+00
     -2.860  0.1280E-01  0.2310E+00
     -2.766  0.7430E-02  0.2317E+00
     -2.673  0.8151E-02  0.2325E+00
     -2.579  0.9380E-02  0.2334E+00
     -2.485  0.7054E-02  0.2340E+00
     -2.392  0.2983E-02  0.2343E+00
     -2.298  0.4974E-03  0.2344E+00
     -2.204  0.2472E-04  0.2344E+00
     -2.111  0.3775E-06  0.2344E+00
     -2.017  0.1322E-04  0.2344E+00
     -1.923  0.4163E-03  0.2344E+00
     -1.830  0.3020E-02  0.2347E+00
     -1.736  0.6294E-02  0.2353E+00
     -1.642  0.9180E-02  0.2361E+00
     -1.549  0.1656E-01  0.2377E+00
     -1.455  0.1881E-01  0.2395E+00
     -1.361  0.1377E-01  0.2408E+00
     -1.268  0.1506E-01  0.2422E+00
     -1.174  0.2092E-01  0.2441E+00
     -1.080  0.2075E-01  0.2461E+00
     -0.987  0.9753E-02  0.2470E+00
     -0.893  0.4779E-02  0.2474E+00
     -0.799  0.6799E-02  0.2481E+00
     -0.706  0.4173E-02  0.2485E+00
     -0.612  0.6075E-02  0.2490E+00
     -0.518  0.6445E-02  0.2496E+00
     -0.424  0.1585E-02  0.2498E+00
     -0.331  0.8212E-04  0.2498E+00
     -0.237  0.1467E-04  0.2498E+00
     -0.143  0.3452E-03  0.2498E+00
     -0.050  0.1778E-02  0.2500E+00
      0.044  0.1987E-02  0.2502E+00
      0.138  0.4841E-03  0.2502E+00
      0.231  0.2499E-04  0.2502E+00
      0.325  0.5111E-04  0.2502E+00
      0.419  0.1169E-02  0.2503E+00
      0.512  0.5568E-02  0.2509E+00
      0.606  0.5908E-02  0.2514E+00
      0.700  0.2853E-02  0.2517E+00
      0.793  0.3485E-02  0.2520E+00
      0.887  0.1954E-02  0.2522E+00
      0.981  0.5179E-02  0.2527E+00
      1.074  0.1908E-01  0.2545E+00
      1.168  0.2285E-01  0.2566E+00
      1.262  0.1762E-01  0.2582E+00
      1.355  0.1609E-01  0.2598E+00
      1.449  0.1541E-01  0.2612E+00
      1.543  0.1461E-01  0.2626E+00
      1.636  0.1480E-01  0.2640E+00
      1.730  0.9070E-02  0.2648E+00
      1.824  0.7745E-02  0.2655E+00
      1.917  0.1385E-01  0.2668E+00
      2.011  0.1673E-01  0.2684E+00
      2.105  0.1316E-01  0.2696E+00
      2.198  0.1329E-01  0.2709E+00
      2.292  0.1342E-01  0.2721E+00
      2.386  0.1570E-01  0.2736E+00
      2.479  0.1753E-01  0.2752E+00
      2.573  0.1482E-01  0.2766E+00
      2.667  0.1390E-01  0.2779E+00
      2.760  0.1324E-01  0.2792E+00
      2.854  0.2226E-01  0.2813E+00
      2.948  0.2099E-01  0.2832E+00
      3.041  0.1508E-01  0.2846E+00
      3.135  0.1353E-01  0.2859E+00
      3.229  0.1472E-01  0.2873E+00
      3.322  0.2292E-01  0.2894E+00
      3.416  0.2284E-01  0.2916E+00
      3.510  0.1198E-01  0.2927E+00
      3.603  0.1018E-01  0.2936E+00
      3.697  0.1114E-01  0.2947E+00
      3.791  0.1524E-01  0.2961E+00
      3.884  0.2066E-01  0.2980E+00
      3.978  0.2004E-01  0.2999E+00
      4.072  0.1391E-01  0.3012E+00
      4.165  0.1176E-01  0.3023E+00
      4.259  0.1363E-01  0.3036E+00
      4.353  0.1260E-01  0.3048E+00
      4.446  0.1591E-01  0.3063E+00
      4.540  0.1910E-01  0.3081E+00
      4.634  0.1779E-01  0.3097E+00
      4.727  0.2204E-01  0.3118E+00
      4.821  0.2702E-01  0.3143E+00
      4.915  0.2234E-01  0.3164E+00
      5.009  0.1453E-01  0.3178E+00
      5.102  0.1846E-01  0.3195E+00
      5.196  0.3109E-01  0.3224E+00
      5.290  0.2549E-01  0.3248E+00
      5.383  0.1517E-01  0.3262E+00
      5.477  0.1693E-01  0.3278E+00
      5.571  0.2436E-01  0.3301E+00
      5.664  0.2694E-01  0.3326E+00
      5.758  0.2086E-01  0.3346E+00
      5.852  0.2025E-01  0.3365E+00
      5.945  0.2622E-01  0.3389E+00
      6.039  0.2909E-01  0.3417E+00
      6.133  0.2743E-01  0.3442E+00
      6.226  0.2663E-01  0.3467E+00
      6.320  0.2614E-01  0.3492E+00
      6.414  0.2905E-01  0.3519E+00
      6.507  0.3647E-01  0.3553E+00
      6.601  0.4902E-01  0.3599E+00
      6.695  0.3993E-01  0.3636E+00
      6.788  0.3844E-01  0.3672E+00
      6.882  0.3154E-01  0.3702E+00
      6.976  0.2737E-01  0.3728E+00
      7.069  0.1984E-01  0.3746E+00
      7.163  0.3968E-02  0.3750E+00
      7.257  0.1810E-03  0.3750E+00
      7.350  0.1826E-05  0.3750E+00
      7.444  0.3984E-08  0.3750E+00
      7.538  0.1809E-11  0.3750E+00
      7.631  0.1613E-15  0.3750E+00
      7.725  0.0000E+00  0.3750E+00
      7.819  0.0000E+00  0.3750E+00
      7.912  0.0000E+00  0.3750E+00
      8.006  0.0000E+00  0.3750E+00
      8.100  0.0000E+00  0.3750E+00
      8.193  0.0000E+00  0.3750E+00
      8.287  0.0000E+00  0.3750E+00
