    8    8  128    1
  0.4348128E+02  0.5174700E-09  0.5174700E-09  0.1500000E-08  0.5000000E-15
  1.000000000000000E-004
  CAR 
 BC3                                     
     30     19     24
 
  0.0000000E+00  0.0000000E+00  0.0000000E+00  0.6944444E-02
    1      -18.524557   1.000000
    2      -14.632421   1.000000
    3      -14.632367   1.000000
    4      -12.283457   1.000000
    5      -12.283395   1.000000
    6      -11.214926   1.000000
    7       -9.897752   1.000000
    8       -7.331223   1.000000
    9       -7.108116   1.000000
   10       -4.954793   1.000000
   11       -4.954781   1.000000
   12       -3.134825   1.000000
   13       -3.134788   1.000000
   14       -2.450110   0.999996
   15       -2.450014   0.999996
   16       -0.617031   0.000000
   17        1.114650   0.000000
   18        1.114690   0.000000
   19        1.806739   0.000000
   20        1.968948   0.000000
   21        4.564935   0.000000
   22        6.030396   0.000000
   23        6.332504   0.000000
   24        6.332523   0.000000
 
  0.8333333E-01  0.6938894E-17  0.0000000E+00  0.4166667E-01
    1      -18.497445   1.000000
    2      -14.764603   1.000000
    3      -14.674800   1.000000
    4      -12.322634   1.000000
    5      -12.184946   1.000000
    6      -11.080304   1.000000
    7       -9.737323   1.000000
    8       -7.290032   1.000000
    9       -7.165523   1.000000
   10       -5.078238   1.000000
   11       -4.977275   1.000000
   12       -3.259377   1.000000
   13       -3.155376   1.000000
   14       -2.592874   1.000000
   15       -2.518889   1.000000
   16       -0.821798   0.000000
   17        1.173972   0.000000
   18        1.425141   0.000000
   19        1.931398   0.000000
   20        2.020676   0.000000
   21        4.616980   0.000000
   22        6.086716   0.000000
   23        6.404607   0.000000
   24        6.495406   0.000000
 
  0.1666667E+00 -0.4163336E-16  0.0000000E+00  0.4166667E-01
    1      -18.418333   1.000000
    2      -15.089766   1.000000
    3      -14.779114   1.000000
    4      -12.439144   1.000000
    5      -11.915708   1.000000
    6      -10.698961   1.000000
    7       -9.307820   1.000000
    8       -7.347814   1.000000
    9       -7.167579   1.000000
   10       -5.424116   1.000000
   11       -5.013393   1.000000
   12       -3.601505   1.000000
   13       -3.209668   1.000000
   14       -2.999920   1.000000
   15       -2.710710   1.000000
   16       -1.169593   0.000000
   17        1.337502   0.000000
   18        1.902793   0.000000
   19        2.175390   0.000000
   20        2.450825   0.000000
   21        4.773402   0.000000
   22        6.237783   0.000000
   23        6.579132   0.000000
   24        6.961236   0.000000
 
  0.2500000E+00  0.1387779E-16  0.0000000E+00  0.4166667E-01
    1      -18.295259   1.000000
    2      -15.486499   1.000000
    3      -14.901530   1.000000
    4      -12.586871   1.000000
    5      -11.531009   1.000000
    6      -10.156278   1.000000
    7       -8.697912   1.000000
    8       -7.661569   1.000000
    9       -6.968268   1.000000
   10       -5.931046   1.000000
   11       -5.004411   1.000000
   12       -4.078738   1.000000
   13       -3.617382   1.000000
   14       -3.279816   1.000000
   15       -2.986340   1.000000
   16       -1.456327   0.000000
   17        1.565920   0.000000
   18        2.259638   0.000000
   19        2.432110   0.000000
   20        3.333723   0.000000
   21        5.036027   0.000000
   22        6.065089   0.000000
   23        6.458643   0.000000
   24        6.791885   0.000000
 
  0.3333333E+00  0.0000000E+00  0.0000000E+00  0.4166667E-01
    1      -18.146636   1.000000
    2      -15.863899   1.000000
    3      -15.007698   1.000000
    4      -12.715870   1.000000
    5      -11.092915   1.000000
    6       -9.532938   1.000000
    7       -8.068703   1.000000
    8       -7.994657   1.000000
    9       -6.703639   1.000000
   10       -6.508501   1.000000
   11       -4.925375   1.000000
   12       -4.596012   1.000000
   13       -4.378978   1.000000
   14       -3.345909   1.000000
   15       -3.290949   1.000000
   16       -1.654570   0.000000
   17        1.802598   0.000000
   18        2.583637   0.000000
   19        2.789973   0.000000
   20        4.306365   0.000000
   21        5.218985   0.000000
   22        5.413806   0.000000
   23        6.692201   0.000000
   24        7.000130   0.000000
 
  0.4166667E+00  0.1110223E-15  0.0000000E+00  0.4166667E-01
    1      -18.011208   1.000000
    2      -16.147199   1.000000
    3      -15.077757   1.000000
    4      -12.800348   1.000000
    5      -10.691527   1.000000
    6       -8.887912   1.000000
    7       -8.465231   1.000000
    8       -7.558132   1.000000
    9       -6.776782   1.000000
   10       -6.411086   1.000000
   11       -5.217889   1.000000
   12       -5.059096   1.000000
   13       -4.809073   1.000000
   14       -3.552350   1.000000
   15       -3.392008   1.000000
   16       -1.770317   0.000000
   17        1.982912   0.000000
   18        2.827084   0.000000
   19        3.248385   0.000000
   20        4.464259   0.000000
   21        5.222548   0.000000
   22        5.929369   0.000000
   23        6.779434   0.000000
   24        6.822913   0.000000
 
  0.5000000E+00  0.2775558E-16  0.0000000E+00  0.2083333E-01
    1      -17.952676   1.000000
    2      -16.256558   1.000000
    3      -15.102055   1.000000
    4      -12.829493   1.000000
    5      -10.506698   1.000000
    6       -8.651135   1.000000
    7       -8.443883   1.000000
    8       -7.837708   1.000000
    9       -6.243638   1.000000
   10       -6.212228   1.000000
   11       -5.958950   1.000000
   12       -5.286245   1.000000
   13       -4.746407   1.000000
   14       -3.664510   1.000000
   15       -3.408435   1.000000
   16       -1.808437   0.000002
   17        2.050749   0.000000
   18        2.919165   0.000000
   19        3.805633   0.000000
   20        3.807910   0.000000
   21        5.856008   0.000000
   22        6.057512   0.000000
   23        6.699251   0.000000
   24        6.853703   0.000000
 
  0.8333333E-01  0.8333333E-01  0.0000000E+00  0.4166667E-01
    1      -18.444298   1.000000
    2      -14.978090   1.000000
    3      -14.764580   1.000000
    4      -12.351151   1.000000
    5      -12.058525   1.000000
    6      -10.809611   1.000000
    7       -9.445727   1.000000
    8       -7.287726   1.000000
    9       -7.208188   1.000000
   10       -5.288220   1.000000
   11       -5.029147   1.000000
   12       -3.472136   1.000000
   13       -3.219699   1.000000
   14       -2.858517   1.000000
   15       -2.658441   1.000000
   16       -1.062117   0.000000
   17        1.206746   0.000000
   18        1.933751   0.000000
   19        2.123906   0.000000
   20        2.188082   0.000000
   21        4.721129   0.000000
   22        6.195315   0.000000
   23        6.555479   0.000000
   24        6.771028   0.000000
 
  0.1666667E+00  0.8333333E-01  0.0000000E+00  0.8333333E-01
    1      -18.342891   1.000000
    2      -15.313584   1.000000
    3      -14.908164   1.000000
    4      -12.421615   1.000000
    5      -11.806124   1.000000
    6      -10.317510   1.000000
    7       -8.937744   1.000000
    8       -7.550260   1.000000
    9       -7.047122   1.000000
   10       -5.658285   1.000000
   11       -5.086473   1.000000
   12       -3.849397   1.000000
   13       -3.348933   1.000000
   14       -3.342202   1.000000
   15       -2.913612   1.000000
   16       -1.289123   0.000000
   17        1.274046   0.000000
   18        2.329659   0.000000
   19        2.442588   0.000000
   20        2.865772   0.000000
   21        4.929776   0.000000
   22        6.394457   0.000000
   23        6.550330   0.000000
   24        6.799363   0.000000
 
  0.2500000E+00  0.8333333E-01  0.0000000E+00  0.8333333E-01
    1      -18.205678   1.000000
    2      -15.684498   1.000000
    3      -15.045503   1.000000
    4      -12.531100   1.000000
    5      -11.422124   1.000000
    6       -9.713355   1.000000
    7       -8.291221   1.000000
    8       -7.939413   1.000000
    9       -6.814055   1.000000
   10       -6.152542   1.000000
   11       -5.072381   1.000000
   12       -4.330276   1.000000
   13       -4.012606   1.000000
   14       -3.465966   1.000000
   15       -3.227136   1.000000
   16       -1.438891   0.000000
   17        1.405080   0.000000
   18        2.637018   0.000000
   19        2.821573   0.000000
   20        3.810074   0.000000
   21        5.245671   0.000000
   22        5.669708   0.000000
   23        6.648748   0.000000
   24        6.825324   0.000000
 
  0.3333333E+00  0.8333333E-01  0.0000000E+00  0.8333333E-01
    1      -18.059677   1.000000
    2      -16.009459   1.000000
    3      -15.147253   1.000000
    4      -12.624595   1.000000
    5      -10.995271   1.000000
    6       -9.079821   1.000000
    7       -8.379241   1.000000
    8       -7.614367   1.000000
    9       -6.652279   1.000000
   10       -6.529329   1.000000
   11       -5.023467   1.000000
   12       -4.819740   1.000000
   13       -4.749541   1.000000
   14       -3.559885   1.000000
   15       -3.533221   1.000000
   16       -1.529596   0.000000
   17        1.551581   0.000000
   18        3.045242   0.000000
   19        3.139093   0.000000
   20        4.772666   0.000000
   21        4.868204   0.000000
   22        5.681926   0.000000
   23        6.620150   0.000000
   24        6.997923   0.000000
 
  0.4166667E+00  0.8333333E-01  0.0000000E+00  0.8333333E-01
    1      -17.956519   1.000000
    2      -16.208007   1.000000
    3      -15.200622   1.000000
    4      -12.675975   1.000000
    5      -10.667599   1.000000
    6       -8.787540   1.000000
    7       -8.422917   1.000000
    8       -7.554479   1.000000
    9       -6.474828   1.000000
   10       -6.269364   1.000000
   11       -5.648771   1.000000
   12       -5.192517   1.000000
   13       -4.846611   1.000000
   14       -3.742758   1.000000
   15       -3.609780   1.000000
   16       -1.573607   0.000000
   17        1.647795   0.000000
   18        3.326556   0.000000
   19        3.553744   0.000000
   20        4.161833   0.000000
   21        5.613750   0.000000
   22        6.169291   0.000000
   23        6.535967   0.000000
   24        6.559502   0.000000
 
  0.1666667E+00  0.1666667E+00  0.0000000E+00  0.4166667E-01
    1      -18.226426   1.000000
    2      -15.578689   1.000000
    3      -15.117333   1.000000
    4      -12.310736   1.000000
    5      -11.702273   1.000000
    6       -9.735219   1.000000
    7       -8.407477   1.000000
    8       -7.913148   1.000000
    9       -6.851647   1.000000
   10       -5.905161   1.000000
   11       -5.230226   1.000000
   12       -4.161871   1.000000
   13       -3.844191   1.000000
   14       -3.617863   1.000000
   15       -3.247540   1.000000
   16       -1.269586   0.000000
   17        1.145395   0.000000
   18        2.586114   0.000000
   19        3.249387   0.000000
   20        3.353922   0.000000
   21        5.189016   0.000000
   22        6.200460   0.000000
   23        6.228080   0.000000
   24        6.670522   0.000000
 
  0.2500000E+00  0.1666667E+00  0.0000000E+00  0.8333333E-01
    1      -18.087747   1.000000
    2      -15.855908   1.000000
    3      -15.301105   1.000000
    4      -12.280848   1.000000
    5      -11.421848   1.000000
    6       -9.104137   1.000000
    7       -8.359697   1.000000
    8       -7.779107   1.000000
    9       -6.593950   1.000000
   10       -6.247956   1.000000
   11       -5.302258   1.000000
   12       -4.557368   1.000000
   13       -4.448649   1.000000
   14       -3.859302   1.000000
   15       -3.623121   1.000000
   16       -1.185212   0.000000
   17        1.078169   0.000000
   18        2.943948   0.000000
   19        3.677228   0.000000
   20        4.265306   0.000000
   21        5.371879   0.000000
   22        5.550896   0.000000
   23        5.970354   0.000000
   24        7.015617   0.000000
 
  0.3333333E+00  0.1666667E+00  0.0000000E+00  0.8333333E-01
    1      -17.964062   1.000000
    2      -16.081904   1.000000
    3      -15.413823   1.000000
    4      -12.305410   1.000000
    5      -11.060840   1.000000
    6       -8.956319   1.000000
    7       -8.316432   1.000000
    8       -7.244861   1.000000
    9       -6.553570   1.000000
   10       -6.313904   1.000000
   11       -5.437287   1.000000
   12       -4.960710   1.000000
   13       -4.959965   1.000000
   14       -3.995789   1.000000
   15       -3.939281   1.000000
   16       -1.116264   0.000000
   17        1.063161   0.000000
   18        3.402409   0.000000
   19        3.965893   0.000000
   20        4.618045   0.000000
   21        5.189384   0.000000
   22        5.822441   0.000000
   23        6.017770   0.000000
   24        6.786771   0.000000
 
  0.4166667E+00  0.1666667E+00  0.0000000E+00  0.4166667E-01
    1      -17.911666   1.000000
    2      -16.171827   1.000000
    3      -15.451044   1.000000
    4      -12.319145   1.000000
    5      -10.874922   1.000000
    6       -9.140801   1.000000
    7       -7.937875   1.000000
    8       -7.338784   1.000000
    9       -6.221698   1.000000
   10       -6.158760   1.000000
   11       -5.925743   1.000000
   12       -5.162589   1.000000
   13       -5.018542   1.000000
   14       -4.074213   1.000000
   15       -4.039010   1.000000
   16       -1.091769   0.000000
   17        1.064433   0.000000
   18        3.957269   0.000000
   19        3.964318   0.000000
   20        4.073844   0.000000
   21        5.773013   0.000000
   22        5.901773   0.000000
   23        6.110733   0.000000
   24        6.532796   0.000000
 
  0.2500000E+00  0.2500000E+00  0.0000000E+00  0.4166667E-01
    1      -17.967741   1.000000
    2      -15.984173   1.000000
    3      -15.550134   1.000000
    4      -12.009482   1.000000
    5      -11.370196   1.000000
    6       -9.013495   1.000000
    7       -8.251165   1.000000
    8       -7.240270   1.000000
    9       -6.363001   1.000000
   10       -6.333567   1.000000
   11       -5.576199   1.000000
   12       -4.851857   1.000000
   13       -4.772154   1.000000
   14       -4.243519   1.000000
   15       -4.080250   1.000000
   16       -0.851614   0.000000
   17        0.761854   0.000000
   18        3.352068   0.000000
   19        4.498321   0.000000
   20        4.728142   0.000000
   21        5.162470   0.000000
   22        5.184196   0.000000
   23        5.939207   0.000000
   24        7.000845   0.000000
 
  0.3333333E+00  0.2500000E+00  0.0000000E+00  0.8333333E-01
    1      -17.887494   1.000000
    2      -16.057718   1.000000
    3      -15.698179   1.000000
    4      -11.887197   1.000000
    5      -11.219321   1.000000
    6       -9.356581   1.000000
    7       -7.637316   1.000000
    8       -6.980428   1.000000
    9       -6.467288   1.000000
   10       -6.112905   1.000000
   11       -5.824182   1.000000
   12       -5.065935   1.000000
   13       -4.972839   1.000000
   14       -4.448582   1.000000
   15       -4.432458   1.000000
   16       -0.589435   0.000000
   17        0.528039   0.000000
   18        3.860433   0.000000
   19        4.468127   0.000000
   20        4.812435   0.000000
   21        5.073991   0.000000
   22        5.514762   0.000000
   23        6.301695   0.000000
   24        6.391163   0.000000
 
  0.3333333E+00  0.3333333E+00  0.0000000E+00  0.1388889E-01
    1      -17.857916   1.000000
    2      -15.926048   1.000000
    3      -15.926012   1.000000
    4      -11.494128   1.000000
    5      -11.494062   1.000000
    6       -9.533134   1.000000
    7       -7.032518   1.000000
    8       -7.032477   1.000000
    9       -6.671419   1.000000
   10       -6.025622   1.000000
   11       -5.891865   1.000000
   12       -4.879353   1.000000
   13       -4.879305   1.000000
   14       -4.801404   1.000000
   15       -4.801386   1.000000
   16       -0.029334   0.000000
   17       -0.029289   0.000000
   18        4.403187   0.000000
   19        4.425805   0.000000
   20        4.425816   0.000000
   21        5.587244   0.000000
   22        5.587263   0.000000
   23        5.711774   0.000000
   24        6.595156   0.000000
