    8    8  128    1
  0.4348128E+02  0.5174700E-09  0.5174700E-09  0.1500000E-08  0.5000000E-15
  1.000000000000000E-004
  CAR 
 BC3                                     
     30     19     24
 
  0.0000000E+00  0.0000000E+00  0.0000000E+00  0.6944444E-02
    1      -18.537329   1.000000
    2      -14.645830   1.000000
    3      -14.645777   1.000000
    4      -12.296296   1.000000
    5      -12.296234   1.000000
    6      -11.227742   1.000000
    7       -9.910798   1.000000
    8       -7.343885   1.000000
    9       -7.121781   1.000000
   10       -4.968178   1.000000
   11       -4.968159   1.000000
   12       -3.148231   1.000000
   13       -3.148195   1.000000
   14       -2.464033   0.999996
   15       -2.463929   0.999996
   16       -0.630261   0.000000
   17        1.101087   0.000000
   18        1.101128   0.000000
   19        1.792132   0.000000
   20        1.956946   0.000000
   21        4.528633   0.000000
   22        5.981649   0.000000
   23        6.317603   0.000000
   24        6.317623   0.000000
 
  0.8333333E-01  0.6938894E-17  0.0000000E+00  0.4166667E-01
    1      -18.510225   1.000000
    2      -14.777945   1.000000
    3      -14.688180   1.000000
    4      -12.335489   1.000000
    5      -12.197827   1.000000
    6      -11.093165   1.000000
    7       -9.750386   1.000000
    8       -7.302702   1.000000
    9       -7.179174   1.000000
   10       -5.091620   1.000000
   11       -4.990657   1.000000
   12       -3.272751   1.000000
   13       -3.168774   1.000000
   14       -2.606778   1.000000
   15       -2.532785   1.000000
   16       -0.835004   0.000000
   17        1.160391   0.000000
   18        1.411510   0.000000
   19        1.916746   0.000000
   20        2.008669   0.000000
   21        4.580728   0.000000
   22        6.037919   0.000000
   23        6.389430   0.000000
   24        6.480482   0.000000
 
  0.1666667E+00 -0.4163336E-16  0.0000000E+00  0.4166667E-01
    1      -18.431135   1.000000
    2      -15.102966   1.000000
    3      -14.792430   1.000000
    4      -12.452011   1.000000
    5      -11.928693   1.000000
    6      -10.711932   1.000000
    7       -9.320933   1.000000
    8       -7.361413   1.000000
    9       -7.180274   1.000000
   10       -5.437490   1.000000
   11       -5.026792   1.000000
   12       -3.614787   1.000000
   13       -3.223044   1.000000
   14       -3.013774   1.000000
   15       -2.724547   1.000000
   16       -1.182766   0.000000
   17        1.323866   0.000000
   18        1.888736   0.000000
   19        2.163372   0.000000
   20        2.436283   0.000000
   21        4.737323   0.000000
   22        6.190571   0.000000
   23        6.561662   0.000000
   24        6.946265   0.000000
 
  0.2500000E+00  0.1387779E-16  0.0000000E+00  0.4166667E-01
    1      -18.308100   1.000000
    2      -15.499551   1.000000
    3      -14.914783   1.000000
    4      -12.599736   1.000000
    5      -11.544128   1.000000
    6      -10.169367   1.000000
    7       -8.711108   1.000000
    8       -7.675070   1.000000
    9       -6.981006   1.000000
   10       -5.944397   1.000000
   11       -5.017857   1.000000
   12       -4.091894   1.000000
   13       -3.631161   1.000000
   14       -3.293167   1.000000
   15       -3.000094   1.000000
   16       -1.469484   0.000000
   17        1.552209   0.000000
   18        2.245288   0.000000
   19        2.420074   0.000000
   20        3.318889   0.000000
   21        5.000378   0.000000
   22        6.052838   0.000000
   23        6.417007   0.000000
   24        6.767385   0.000000
 
  0.3333333E+00  0.0000000E+00  0.0000000E+00  0.4166667E-01
    1      -18.159531   1.000000
    2      -15.876820   1.000000
    3      -15.020902   1.000000
    4      -12.728729   1.000000
    5      -11.106189   1.000000
    6       -9.546130   1.000000
    7       -8.082062   1.000000
    8       -8.007974   1.000000
    9       -6.716443   1.000000
   10       -6.521798   1.000000
   11       -4.938895   1.000000
   12       -4.609031   1.000000
   13       -4.392660   1.000000
   14       -3.359236   1.000000
   15       -3.304603   1.000000
   16       -1.667720   0.000000
   17        1.788808   0.000000
   18        2.569179   0.000000
   19        2.777915   0.000000
   20        4.290203   0.000000
   21        5.206816   0.000000
   22        5.379459   0.000000
   23        6.664536   0.000000
   24        6.962408   0.000000
 
  0.4166667E+00  0.1110223E-15  0.0000000E+00  0.4166667E-01
    1      -18.024163   1.000000
    2      -16.160014   1.000000
    3      -15.090932   1.000000
    4      -12.813202   1.000000
    5      -10.704972   1.000000
    6       -8.901201   1.000000
    7       -8.478420   1.000000
    8       -7.571551   1.000000
    9       -6.790042   1.000000
   10       -6.423987   1.000000
   11       -5.231453   1.000000
   12       -5.071975   1.000000
   13       -4.822683   1.000000
   14       -3.565902   1.000000
   15       -3.405319   1.000000
   16       -1.783464   0.000000
   17        1.969062   0.000000
   18        2.812602   0.000000
   19        3.236302   0.000000
   20        4.452121   0.000000
   21        5.201821   0.000000
   22        5.899138   0.000000
   23        6.749101   0.000000
   24        6.806575   0.000000
 
  0.5000000E+00  0.2775558E-16  0.0000000E+00  0.2083333E-01
    1      -17.965662   1.000000
    2      -16.269327   1.000000
    3      -15.115220   1.000000
    4      -12.842345   1.000000
    5      -10.520245   1.000000
    6       -8.664222   1.000000
    7       -8.457277   1.000000
    8       -7.850985   1.000000
    9       -6.256621   1.000000
   10       -6.225698   1.000000
   11       -5.972354   1.000000
   12       -5.299026   1.000000
   13       -4.760066   1.000000
   14       -3.678007   1.000000
   15       -3.421741   1.000000
   16       -1.821583   0.000002
   17        2.036876   0.000000
   18        2.904687   0.000000
   19        3.793475   0.000000
   20        3.795849   0.000000
   21        5.831589   0.000000
   22        6.024220   0.000000
   23        6.682597   0.000000
   24        7.009697   0.000000
 
  0.8333333E-01  0.8333333E-01  0.0000000E+00  0.4166667E-01
    1      -18.457093   1.000000
    2      -14.991339   1.000000
    3      -14.777900   1.000000
    4      -12.364058   1.000000
    5      -12.071434   1.000000
    6      -10.822557   1.000000
    7       -9.458823   1.000000
    8       -7.301342   1.000000
    9       -7.220874   1.000000
   10       -5.301608   1.000000
   11       -5.042528   1.000000
   12       -3.485458   1.000000
   13       -3.233067   1.000000
   14       -2.872391   1.000000
   15       -2.672293   1.000000
   16       -1.075304   0.000000
   17        1.193103   0.000000
   18        1.920051   0.000000
   19        2.111891   0.000000
   20        2.173318   0.000000
   21        4.684985   0.000000
   22        6.146448   0.000000
   23        6.540597   0.000000
   24        6.755150   0.000000
 
  0.1666667E+00  0.8333333E-01  0.0000000E+00  0.8333333E-01
    1      -18.355716   1.000000
    2      -15.326704   1.000000
    3      -14.921402   1.000000
    4      -12.434554   1.000000
    5      -11.819118   1.000000
    6      -10.330584   1.000000
    7       -8.950904   1.000000
    8       -7.563792   1.000000
    9       -7.059842   1.000000
   10       -5.671679   1.000000
   11       -5.099875   1.000000
   12       -3.862622   1.000000
   13       -3.362744   1.000000
   14       -3.355516   1.000000
   15       -2.927393   1.000000
   16       -1.302318   0.000000
   17        1.260333   0.000000
   18        2.317629   0.000000
   19        2.428296   0.000000
   20        2.851201   0.000000
   21        4.893899   0.000000
   22        6.347405   0.000000
   23        6.537563   0.000000
   24        6.781895   0.000000
 
  0.2500000E+00  0.8333333E-01  0.0000000E+00  0.8333333E-01
    1      -18.218550   1.000000
    2      -15.697484   1.000000
    3      -15.058677   1.000000
    4      -12.544032   1.000000
    5      -11.435263   1.000000
    6       -9.726546   1.000000
    7       -8.304477   1.000000
    8       -7.952811   1.000000
    9       -6.826830   1.000000
   10       -6.165918   1.000000
   11       -5.085845   1.000000
   12       -4.343372   1.000000
   13       -4.026326   1.000000
   14       -3.479233   1.000000
   15       -3.240825   1.000000
   16       -1.452106   0.000000
   17        1.391302   0.000000
   18        2.624969   0.000000
   19        2.807070   0.000000
   20        3.794913   0.000000
   21        5.210455   0.000000
   22        5.657518   0.000000
   23        6.611605   0.000000
   24        6.802233   0.000000
 
  0.3333333E+00  0.8333333E-01  0.0000000E+00  0.8333333E-01
    1      -18.072609   1.000000
    2      -16.022326   1.000000
    3      -15.160387   1.000000
    4      -12.637519   1.000000
    5      -11.008583   1.000000
    6       -9.093103   1.000000
    7       -8.392477   1.000000
    8       -7.627769   1.000000
    9       -6.665584   1.000000
   10       -6.542184   1.000000
   11       -5.037055   1.000000
   12       -4.832696   1.000000
   13       -4.763114   1.000000
   14       -3.573121   1.000000
   15       -3.546808   1.000000
   16       -1.542823   0.000000
   17        1.537744   0.000000
   18        3.033169   0.000000
   19        3.124539   0.000000
   20        4.755310   0.000000
   21        4.856049   0.000000
   22        5.648820   0.000000
   23        6.607386   0.000000
   24        6.966235   0.000000
 
  0.4166667E+00  0.8333333E-01  0.0000000E+00  0.8333333E-01
    1      -17.969503   1.000000
    2      -16.220793   1.000000
    3      -15.213737   1.000000
    4      -12.688892   1.000000
    5      -10.681082   1.000000
    6       -8.800609   1.000000
    7       -8.436294   1.000000
    8       -7.567874   1.000000
    9       -6.488204   1.000000
   10       -6.282327   1.000000
   11       -5.662276   1.000000
   12       -5.205335   1.000000
   13       -4.860213   1.000000
   14       -3.756257   1.000000
   15       -3.623001   1.000000
   16       -1.586840   0.000000
   17        1.633923   0.000000
   18        3.312016   0.000000
   19        3.541645   0.000000
   20        4.149706   0.000000
   21        5.590576   0.000000
   22        6.138882   0.000000
   23        6.523583   0.000000
   24        6.534698   0.000000
 
  0.1666667E+00  0.1666667E+00  0.0000000E+00  0.4166667E-01
    1      -18.239290   1.000000
    2      -15.591720   1.000000
    3      -15.130460   1.000000
    4      -12.323797   1.000000
    5      -11.715265   1.000000
    6       -9.748428   1.000000
    7       -8.420706   1.000000
    8       -7.926551   1.000000
    9       -6.864413   1.000000
   10       -5.918619   1.000000
   11       -5.243627   1.000000
   12       -4.175028   1.000000
   13       -3.857927   1.000000
   14       -3.631057   1.000000
   15       -3.261236   1.000000
   16       -1.282854   0.000000
   17        1.131653   0.000000
   18        2.574067   0.000000
   19        3.233968   0.000000
   20        3.339968   0.000000
   21        5.153520   0.000000
   22        6.188162   0.000000
   23        6.215856   0.000000
   24        6.621069   0.000000
 
  0.2500000E+00  0.1666667E+00  0.0000000E+00  0.8333333E-01
    1      -18.100666   1.000000
    2      -15.868835   1.000000
    3      -15.314158   1.000000
    4      -12.293930   1.000000
    5      -11.434973   1.000000
    6       -9.117451   1.000000
    7       -8.372941   1.000000
    8       -7.792440   1.000000
    9       -6.606784   1.000000
   10       -6.261426   1.000000
   11       -5.315724   1.000000
   12       -4.570411   1.000000
   13       -4.462266   1.000000
   14       -3.872420   1.000000
   15       -3.636717   1.000000
   16       -1.198542   0.000000
   17        1.064406   0.000000
   18        2.931879   0.000000
   19        3.662145   0.000000
   20        4.250102   0.000000
   21        5.359701   0.000000
   22        5.516203   0.000000
   23        5.958146   0.000000
   24        6.967166   0.000000
 
  0.3333333E+00  0.1666667E+00  0.0000000E+00  0.8333333E-01
    1      -17.977038   1.000000
    2      -16.094735   1.000000
    3      -15.426840   1.000000
    4      -12.318475   1.000000
    5      -11.074166   1.000000
    6       -8.969384   1.000000
    7       -8.329828   1.000000
    8       -7.258358   1.000000
    9       -6.566960   1.000000
   10       -6.326836   1.000000
   11       -5.450883   1.000000
   12       -4.974157   1.000000
   13       -4.972865   1.000000
   14       -4.008879   1.000000
   15       -3.952779   1.000000
   16       -1.129628   0.000000
   17        1.049376   0.000000
   18        3.390316   0.000000
   19        3.950963   0.000000
   20        4.605897   0.000000
   21        5.171599   0.000000
   22        5.810240   0.000000
   23        5.985339   0.000000
   24        6.759705   0.000000
 
  0.4166667E+00  0.1666667E+00  0.0000000E+00  0.4166667E-01
    1      -17.924671   1.000000
    2      -16.184615   1.000000
    3      -15.464051   1.000000
    4      -12.332204   1.000000
    5      -10.888377   1.000000
    6       -9.153715   1.000000
    7       -7.951375   1.000000
    8       -7.352254   1.000000
    9       -6.235247   1.000000
   10       -6.171773   1.000000
   11       -5.939154   1.000000
   12       -5.175393   1.000000
   13       -5.032030   1.000000
   14       -4.087656   1.000000
   15       -4.052093   1.000000
   16       -1.105144   0.000000
   17        1.050639   0.000000
   18        3.945107   0.000000
   19        3.952240   0.000000
   20        4.059006   0.000000
   21        5.760814   0.000000
   22        5.880451   0.000000
   23        6.082204   0.000000
   24        6.510978   0.000000
 
  0.2500000E+00  0.2500000E+00  0.0000000E+00  0.4166667E-01
    1      -17.980714   1.000000
    2      -15.997043   1.000000
    3      -15.563092   1.000000
    4      -12.022689   1.000000
    5      -11.383372   1.000000
    6       -9.026562   1.000000
    7       -8.264582   1.000000
    8       -7.253714   1.000000
    9       -6.376564   1.000000
   10       -6.346486   1.000000
   11       -5.589678   1.000000
   12       -4.865315   1.000000
   13       -4.785129   1.000000
   14       -4.256521   1.000000
   15       -4.093740   1.000000
   16       -0.865044   0.000000
   17        0.748126   0.000000
   18        3.339976   0.000000
   19        4.481617   0.000000
   20        4.713918   0.000000
   21        5.150287   0.000000
   22        5.172036   0.000000
   23        5.905100   0.000000
   24        6.977579   0.000000
 
  0.3333333E+00  0.2500000E+00  0.0000000E+00  0.8333333E-01
    1      -17.900509   1.000000
    2      -16.070539   1.000000
    3      -15.711095   1.000000
    4      -11.900416   1.000000
    5      -11.232672   1.000000
    6       -9.369426   1.000000
    7       -7.650863   1.000000
    8       -6.994019   1.000000
    9       -6.480860   1.000000
   10       -6.125929   1.000000
   11       -5.837651   1.000000
   12       -5.079271   1.000000
   13       -4.985699   1.000000
   14       -4.461545   1.000000
   15       -4.445855   1.000000
   16       -0.602926   0.000000
   17        0.514337   0.000000
   18        3.848315   0.000000
   19        4.455983   0.000000
   20        4.796778   0.000000
   21        5.061822   0.000000
   22        5.498050   0.000000
   23        6.278696   0.000000
   24        6.361442   0.000000
 
  0.3333333E+00  0.3333333E+00  0.0000000E+00  0.1388889E-01
    1      -17.870948   1.000000
    2      -15.938896   1.000000
    3      -15.938860   1.000000
    4      -11.507459   1.000000
    5      -11.507393   1.000000
    6       -9.545876   1.000000
    7       -7.046170   1.000000
    8       -7.046131   1.000000
    9       -6.685000   1.000000
   10       -6.038694   1.000000
   11       -5.905285   1.000000
   12       -4.892669   1.000000
   13       -4.892619   1.000000
   14       -4.814279   1.000000
   15       -4.814261   1.000000
   16       -0.042938   0.000000
   17       -0.042893   0.000000
   18        4.390990   0.000000
   19        4.413693   0.000000
   20        4.413694   0.000000
   21        5.569745   0.000000
   22        5.569765   0.000000
   23        5.697559   0.000000
   24        6.561581   0.000000
