       N       E                     dE             d eps       ncg     rms          rms(c)
DAV:   1     0.213966852723E+03    0.21397E+03   -0.10525E+04   912   0.827E+02
