       N       E                     dE             d eps       ncg     rms          rms(c)
DAV:   1     0.213979232574E+03    0.21398E+03   -0.10526E+04   912   0.827E+02
DAV:   2    -0.410794246554E+02   -0.25506E+03   -0.23927E+03  1344   0.197E+02
DAV:   3    -0.714630130801E+02   -0.30384E+02   -0.30137E+02  1236   0.820E+01
DAV:   4    -0.721168170571E+02   -0.65380E+00   -0.65237E+00  1236   0.149E+01
DAV:   5    -0.721385735881E+02   -0.21757E-01   -0.21703E-01  1272   0.244E+00    0.128E+01
DAV:   6    -0.680762183172E+02    0.40624E+01   -0.34359E+00  1188   0.851E+00    0.735E+00
DAV:   7    -0.663491383254E+02    0.17271E+01   -0.48389E+00  1344   0.995E+00    0.165E+00
DAV:   8    -0.663126950659E+02    0.36443E-01   -0.13529E-01  1320   0.180E+00    0.243E-01
DAV:   9    -0.663031981184E+02    0.94969E-02   -0.65447E-03  1152   0.389E-01    0.163E-01
DAV:  10    -0.662944590817E+02    0.87390E-02   -0.94387E-03  1080   0.333E-01    0.754E-02
DAV:  11    -0.662923364935E+02    0.21226E-02   -0.32926E-03   996   0.224E-01    0.575E-02
DAV:  12    -0.662926833797E+02   -0.34689E-03   -0.58003E-04   936   0.981E-02    0.329E-02
DAV:  13    -0.662945350568E+02   -0.18517E-02   -0.21394E-04  1116   0.611E-02    0.212E-02
DAV:  14    -0.662970034501E+02   -0.24684E-02   -0.46828E-04   996   0.668E-02    0.170E-02
DAV:  15    -0.662976366215E+02   -0.63317E-03   -0.62637E-05  1104   0.303E-02    0.926E-03
DAV:  16    -0.662979420090E+02   -0.30539E-03   -0.20221E-05   948   0.179E-02    0.192E-03
DAV:  17    -0.662979691751E+02   -0.27166E-04   -0.86288E-07   996   0.422E-03    0.114E-03
DAV:  18    -0.662979824903E+02   -0.13315E-04   -0.32761E-07   744   0.268E-03    0.414E-04
DAV:  19    -0.662979828326E+02   -0.34233E-06   -0.24891E-08   924   0.821E-04
   1 F= -.66297983E+02 E0= -.66297915E+02  d E =-.662980E+02
       N       E                     dE             d eps       ncg     rms          rms(c)
DAV:   1    -0.638490699097E+02    0.24489E+01   -0.74777E+02   912   0.158E+02    0.102E+01
DAV:   2    -0.632763976726E+02    0.57267E+00   -0.20567E+01  1320   0.307E+01    0.427E+00
DAV:   3    -0.629843451636E+02    0.29205E+00   -0.27001E+00  1020   0.874E+00    0.182E+00
DAV:   4    -0.629704238134E+02    0.13921E-01   -0.15376E-01  1224   0.233E+00    0.854E-01
DAV:   5    -0.629660354639E+02    0.43883E-02   -0.15453E-02  1152   0.690E-01    0.138E-01
DAV:   6    -0.629662080483E+02   -0.17258E-03   -0.90381E-04  1104   0.175E-01    0.638E-02
DAV:   7    -0.629663645416E+02   -0.15649E-03   -0.18094E-04   924   0.854E-02    0.132E-02
DAV:   8    -0.629664890423E+02   -0.12450E-03   -0.26855E-05  1008   0.262E-02    0.919E-03
DAV:   9    -0.629667340643E+02   -0.24502E-03   -0.61618E-05   948   0.283E-02    0.695E-03
DAV:  10    -0.629668108457E+02   -0.76781E-04   -0.94024E-06  1092   0.110E-02    0.348E-03
DAV:  11    -0.629668535545E+02   -0.42709E-04   -0.32861E-06  1104   0.819E-03    0.251E-03
DAV:  12    -0.629669141986E+02   -0.60644E-04   -0.26928E-06  1020   0.663E-03    0.152E-03
DAV:  13    -0.629669236622E+02   -0.94637E-05   -0.18683E-07   840   0.194E-03    0.932E-04
DAV:  14    -0.629669343892E+02   -0.10727E-04   -0.46972E-07   768   0.249E-03    0.595E-04
DAV:  15    -0.629669351110E+02   -0.72180E-06   -0.36641E-08   792   0.918E-04
   2 F= -.62966935E+02 E0= -.62966935E+02  d E =0.333105E+01
