       N       E                     dE             d eps       ncg     rms          rms(c)
DAV:   1     0.213966852723E+03    0.21397E+03   -0.10525E+04   912   0.827E+02
DAV:   2    -0.410803504416E+02   -0.25505E+03   -0.23925E+03  1344   0.197E+02
DAV:   3    -0.714628743221E+02   -0.30383E+02   -0.30136E+02  1236   0.820E+01
DAV:   4    -0.721165878051E+02   -0.65371E+00   -0.65228E+00  1236   0.149E+01
DAV:   5    -0.721383369656E+02   -0.21749E-01   -0.21696E-01  1272   0.244E+00    0.128E+01
DAV:   6    -0.680760434092E+02    0.40623E+01   -0.34362E+00  1200   0.851E+00    0.735E+00
DAV:   7    -0.663482405406E+02    0.17278E+01   -0.48412E+00  1344   0.995E+00    0.165E+00
DAV:   8    -0.663116371316E+02    0.36603E-01   -0.13547E-01  1344   0.180E+00    0.243E-01
DAV:   9    -0.663020303716E+02    0.96068E-02   -0.65455E-03  1176   0.389E-01    0.163E-01
DAV:  10    -0.662935936664E+02    0.84367E-02   -0.95665E-03  1068   0.334E-01    0.757E-02
DAV:  11    -0.662918615700E+02    0.17321E-02   -0.31828E-03   996   0.219E-01    0.578E-02
DAV:  12    -0.662922083893E+02   -0.34682E-03   -0.60709E-04   936   0.967E-02    0.330E-02
DAV:  13    -0.662941819799E+02   -0.19736E-02   -0.23512E-04  1128   0.628E-02    0.212E-02
DAV:  14    -0.662966582099E+02   -0.24762E-02   -0.47462E-04   984   0.670E-02    0.174E-02
DAV:  15    -0.662972376083E+02   -0.57940E-03   -0.61684E-05  1104   0.304E-02    0.935E-03
DAV:  16    -0.662975306277E+02   -0.29302E-03   -0.25423E-05   948   0.185E-02    0.183E-03
DAV:  17    -0.662975558735E+02   -0.25246E-04   -0.11450E-06  1104   0.442E-03    0.109E-03
DAV:  18    -0.662975691078E+02   -0.13234E-04   -0.38630E-07   720   0.231E-03    0.218E-04
DAV:  19    -0.662975698330E+02   -0.72523E-06   -0.29667E-08   900   0.699E-04
   1 F= -.66297570E+02 E0= -.66297502E+02  d E =-.662976E+02
       N       E                     dE             d eps       ncg     rms          rms(c)
DAV:   1    -0.638323127204E+02    0.24653E+01   -0.74778E+02   912   0.158E+02    0.102E+01
DAV:   2    -0.632773215461E+02    0.55499E+00   -0.20650E+01  1272   0.307E+01    0.427E+00
DAV:   3    -0.629821496705E+02    0.29517E+00   -0.26966E+00  1068   0.874E+00    0.182E+00
DAV:   4    -0.629681255609E+02    0.14024E-01   -0.15421E-01  1188   0.234E+00    0.853E-01
DAV:   5    -0.629639150993E+02    0.42105E-02   -0.15375E-02  1128   0.689E-01    0.139E-01
DAV:   6    -0.629641110521E+02   -0.19595E-03   -0.93850E-04   948   0.178E-01    0.638E-02
DAV:   7    -0.629642405684E+02   -0.12952E-03   -0.18162E-04   936   0.859E-02    0.133E-02
DAV:   8    -0.629643264561E+02   -0.85888E-04   -0.25493E-05  1056   0.254E-02    0.919E-03
DAV:   9    -0.629644920746E+02   -0.16562E-03   -0.63639E-05   936   0.284E-02    0.699E-03
DAV:  10    -0.629645457316E+02   -0.53657E-04   -0.10151E-05  1080   0.111E-02    0.335E-03
DAV:  11    -0.629645806081E+02   -0.34876E-04   -0.38094E-06  1104   0.824E-03    0.251E-03
DAV:  12    -0.629646456824E+02   -0.65074E-04   -0.33134E-06  1020   0.704E-03    0.132E-03
DAV:  13    -0.629646580958E+02   -0.12413E-04   -0.36928E-07   852   0.270E-03    0.675E-04
DAV:  14    -0.629646708128E+02   -0.12717E-04   -0.64009E-07   888   0.245E-03    0.361E-04
DAV:  15    -0.629646722484E+02   -0.14356E-05   -0.49561E-08   732   0.105E-03    0.251E-04
DAV:  16    -0.629646727077E+02   -0.45930E-06   -0.17133E-08   720   0.540E-04
   2 F= -.62964673E+02 E0= -.62964673E+02  d E =0.333290E+01
       N       E                     dE             d eps       ncg     rms          rms(c)
DAV:   1    -0.677641089092E+02   -0.47994E+01   -0.34732E+02   912   0.114E+02    0.503E+00
DAV:   2    -0.673089401125E+02    0.45517E+00   -0.73279E+00  1236   0.166E+01    0.326E+00
DAV:   3    -0.672313644019E+02    0.77576E-01   -0.95439E-01  1092   0.566E+00    0.179E+00
DAV:   4    -0.672288197124E+02    0.25447E-02   -0.15295E-01  1188   0.183E+00    0.633E-01
DAV:   5    -0.672258298487E+02    0.29899E-02   -0.28703E-02  1152   0.101E+00    0.138E-01
DAV:   6    -0.672258262885E+02    0.35603E-05   -0.38846E-03  1152   0.372E-01    0.736E-02
DAV:   7    -0.672259805420E+02   -0.15425E-03   -0.49069E-04  1188   0.119E-01    0.348E-02
DAV:   8    -0.672260398729E+02   -0.59331E-04   -0.25423E-04  1116   0.771E-02    0.147E-02
DAV:   9    -0.672261774002E+02   -0.13753E-03   -0.54083E-05   996   0.321E-02    0.962E-03
DAV:  10    -0.672262089425E+02   -0.31542E-04   -0.11997E-05  1092   0.135E-02    0.710E-03
DAV:  11    -0.672262146480E+02   -0.57055E-05   -0.10272E-05  1032   0.100E-02    0.231E-03
DAV:  12    -0.672262132882E+02    0.13598E-05   -0.64795E-07  1044   0.297E-03    0.169E-03
DAV:  13    -0.672262139635E+02   -0.67528E-06   -0.20443E-07   888   0.202E-03
   3 F= -.67226214E+02 E0= -.67226214E+02  d E =-.928644E+00
       N       E                     dE             d eps       ncg     rms          rms(c)
DAV:   1    -0.672262726366E+02   -0.59348E-04   -0.54651E-03   960   0.444E-01    0.207E-02
DAV:   2    -0.672262652835E+02    0.73531E-05   -0.93090E-05   996   0.624E-02    0.107E-02
DAV:   3    -0.672262643699E+02    0.91363E-06   -0.18568E-05  1248   0.242E-02    0.431E-03
DAV:   4    -0.672262645195E+02   -0.14959E-06   -0.27405E-06  1104   0.826E-03
   4 F= -.67226265E+02 E0= -.67226264E+02  d E =-.928695E+00
       N       E                     dE             d eps       ncg     rms          rms(c)
DAV:   1    -0.672280693617E+02   -0.18050E-02   -0.49788E-01  1044   0.457E+00    0.449E-01
DAV:   2    -0.672242996878E+02    0.37697E-02   -0.80203E-03  1008   0.530E-01    0.271E-01
DAV:   3    -0.672224014349E+02    0.18983E-02   -0.47350E-03  1236   0.320E-01    0.522E-02
DAV:   4    -0.672222863642E+02    0.11507E-03   -0.75522E-04  1140   0.136E-01    0.224E-02
DAV:   5    -0.672222839658E+02    0.23984E-05   -0.65261E-05  1104   0.410E-02    0.970E-03
DAV:   6    -0.672223409082E+02   -0.56942E-04   -0.60981E-06   996   0.106E-02    0.406E-03
DAV:   7    -0.672223984760E+02   -0.57568E-04   -0.10412E-05  1008   0.112E-02    0.257E-03
DAV:   8    -0.672224359096E+02   -0.37434E-04   -0.82566E-06  1044   0.808E-03    0.117E-03
DAV:   9    -0.672224427609E+02   -0.68513E-05   -0.14123E-06  1224   0.402E-03    0.725E-04
DAV:  10    -0.672224429130E+02   -0.15213E-06   -0.65762E-07   960   0.255E-03
   5 F= -.67222443E+02 E0= -.67222443E+02  d E =0.382161E-02
       N       E                     dE             d eps       ncg     rms          rms(c)
DAV:   1    -0.672322321674E+02   -0.97894E-02   -0.16949E-01  1092   0.268E+00    0.262E-01
DAV:   2    -0.672309767965E+02    0.12554E-02   -0.27578E-03  1284   0.308E-01    0.158E-01
DAV:   3    -0.672303698540E+02    0.60694E-03   -0.15222E-03  1056   0.184E-01    0.294E-02
DAV:   4    -0.672303242438E+02    0.45610E-04   -0.23740E-04  1248   0.772E-02    0.125E-02
DAV:   5    -0.672303174976E+02    0.67462E-05   -0.20803E-05  1116   0.230E-02    0.562E-03
DAV:   6    -0.672303265006E+02   -0.90030E-05   -0.11231E-06   816   0.525E-03    0.227E-03
DAV:   7    -0.672303386597E+02   -0.12159E-04   -0.22574E-06   924   0.580E-03    0.153E-03
DAV:   8    -0.672303552942E+02   -0.16635E-04   -0.22195E-06   936   0.472E-03    0.739E-04
DAV:   9    -0.672303581405E+02   -0.28463E-05   -0.62767E-08   984   0.122E-03    0.413E-04
DAV:  10    -0.672303635548E+02   -0.54142E-05   -0.26133E-07   888   0.148E-03    0.277E-04
DAV:  11    -0.672303672591E+02   -0.37044E-05   -0.68140E-08   864   0.880E-04    0.148E-04
DAV:  12    -0.672303684448E+02   -0.11857E-05   -0.22844E-08   900   0.438E-04    0.860E-05
DAV:  13    -0.672303700219E+02   -0.15771E-05   -0.43280E-08   684   0.582E-04    0.807E-05
DAV:  14    -0.672303700740E+02   -0.52098E-07   -0.30351E-09   840   0.219E-04
   6 F= -.67230370E+02 E0= -.67230370E+02  d E =-.410555E-02
       N       E                     dE             d eps       ncg     rms          rms(c)
DAV:   1    -0.672305960499E+02   -0.22603E-03   -0.47919E-02   912   0.130E+00    0.611E-02
DAV:   2    -0.672305160235E+02    0.80026E-04   -0.86569E-04   924   0.177E-01    0.391E-02
DAV:   3    -0.672304415421E+02    0.74481E-04   -0.17711E-04  1140   0.706E-02    0.115E-02
DAV:   4    -0.672304339650E+02    0.75770E-05   -0.24204E-05  1164   0.249E-02    0.486E-03
DAV:   5    -0.672304336541E+02    0.31098E-06   -0.33737E-06  1056   0.842E-03
   7 F= -.67230434E+02 E0= -.67230434E+02  d E =-.635801E-04
       N       E                     dE             d eps       ncg     rms          rms(c)
DAV:   1    -0.672305324899E+02   -0.98525E-04   -0.90776E-03   960   0.567E-01    0.265E-02
DAV:   2    -0.672305256327E+02    0.68572E-05   -0.16300E-04   936   0.764E-02    0.169E-02
DAV:   3    -0.672305200416E+02    0.55911E-05   -0.31848E-05  1044   0.300E-02    0.506E-03
DAV:   4    -0.672305204007E+02   -0.35909E-06   -0.43517E-06  1212   0.106E-02
   8 F= -.67230520E+02 E0= -.67230520E+02  d E =-.150327E-03
       N       E                     dE             d eps       ncg     rms          rms(c)
DAV:   1    -0.672309076457E+02   -0.38760E-03   -0.79882E-03  1308   0.476E-01    0.588E-02
DAV:   2    -0.672307474294E+02    0.16022E-03   -0.19180E-04   972   0.707E-02    0.306E-02
DAV:   3    -0.672306679316E+02    0.79498E-04   -0.17499E-04  1020   0.593E-02    0.870E-03
DAV:   4    -0.672306678056E+02    0.12608E-06   -0.65816E-06  1224   0.135E-02
   9 F= -.67230668E+02 E0= -.67230668E+02  d E =-.147405E-03
       N       E                     dE             d eps       ncg     rms          rms(c)
DAV:   1    -0.672331646928E+02   -0.24968E-02   -0.70441E-02  1056   0.142E+00    0.173E-01
DAV:   2    -0.672317018122E+02    0.14629E-02   -0.16381E-03   948   0.213E-01    0.911E-02
DAV:   3    -0.672309966564E+02    0.70516E-03   -0.17293E-03  1164   0.185E-01    0.281E-02
DAV:   4    -0.672310205647E+02   -0.23908E-04   -0.70904E-05   960   0.442E-02    0.136E-02
DAV:   5    -0.672310382172E+02   -0.17652E-04   -0.29718E-05  1032   0.239E-02    0.719E-03
DAV:   6    -0.672311151151E+02   -0.76898E-04   -0.18977E-05   936   0.193E-02    0.752E-03
DAV:   7    -0.672311306527E+02   -0.15538E-04   -0.31210E-06  1164   0.749E-03    0.386E-03
DAV:   8    -0.672311551754E+02   -0.24523E-04   -0.11045E-05   996   0.115E-02    0.352E-03
DAV:   9    -0.672311557880E+02   -0.61264E-06   -0.31377E-07  1020   0.271E-03
  10 F= -.67231156E+02 E0= -.67231156E+02  d E =-.635387E-03
       N       E                     dE             d eps       ncg     rms          rms(c)
DAV:   1    -0.672400861709E+02   -0.89310E-02   -0.28800E-01  1224   0.287E+00    0.353E-01
DAV:   2    -0.672343218675E+02    0.57643E-02   -0.69237E-03  1032   0.427E-01    0.184E-01
DAV:   3    -0.672316929740E+02    0.26289E-02   -0.64793E-03  1212   0.360E-01    0.534E-02
DAV:   4    -0.672316990772E+02   -0.61032E-05   -0.26773E-04  1128   0.851E-02    0.249E-02
DAV:   5    -0.672317232879E+02   -0.24211E-04   -0.10812E-04  1032   0.458E-02    0.133E-02
DAV:   6    -0.672318870984E+02   -0.16381E-03   -0.47143E-05   984   0.308E-02    0.117E-02
DAV:   7    -0.672319248116E+02   -0.37713E-04   -0.66653E-06  1176   0.104E-02    0.664E-03
DAV:   8    -0.672319764314E+02   -0.51620E-04   -0.25846E-05  1020   0.170E-02    0.446E-03
DAV:   9    -0.672319791761E+02   -0.27447E-05   -0.12732E-06  1212   0.463E-03    0.296E-03
DAV:  10    -0.672319774569E+02    0.17192E-05   -0.26769E-06  1056   0.732E-03    0.258E-03
DAV:  11    -0.672319774286E+02    0.28263E-07   -0.58376E-07   936   0.352E-03
  11 F= -.67231977E+02 E0= -.67231977E+02  d E =-.145703E-02
       N       E                     dE             d eps       ncg     rms          rms(c)
DAV:   1    -0.672658687409E+02   -0.33891E-01   -0.11682E+00  1068   0.580E+00    0.708E-01
DAV:   2    -0.672428184404E+02    0.23050E-01   -0.26783E-02  1008   0.860E-01    0.371E-01
DAV:   3    -0.672325598896E+02    0.10259E-01   -0.27627E-02  1212   0.741E-01    0.112E-01
DAV:   4    -0.672326059524E+02   -0.46063E-04   -0.11757E-03  1116   0.178E-01    0.526E-02
DAV:   5    -0.672326149535E+02   -0.90011E-05   -0.43867E-04  1044   0.932E-02    0.286E-02
DAV:   6    -0.672330474289E+02   -0.43248E-03   -0.21720E-04  1008   0.699E-02    0.261E-02
DAV:   7    -0.672331240536E+02   -0.76625E-04   -0.33447E-05  1140   0.255E-02    0.134E-02
DAV:   8    -0.672332361808E+02   -0.11213E-03   -0.10902E-04   996   0.378E-02    0.117E-02
DAV:   9    -0.672332354757E+02    0.70506E-06   -0.38920E-06  1200   0.954E-03
  12 F= -.67233235E+02 E0= -.67233235E+02  d E =-.271507E-02
       N       E                     dE             d eps       ncg     rms          rms(c)
DAV:   1    -0.673687621700E+02   -0.13553E+00   -0.48434E+00  1068   0.119E+01    0.145E+00
DAV:   2    -0.672742741451E+02    0.94488E-01   -0.10977E-01   996   0.174E+00    0.755E-01
DAV:   3    -0.672338053355E+02    0.40469E-01   -0.11190E-01  1248   0.150E+00    0.226E-01
DAV:   4    -0.672335407365E+02    0.26460E-03   -0.51476E-03  1116   0.367E-01    0.104E-01
DAV:   5    -0.672331781555E+02    0.36258E-03   -0.17758E-03  1056   0.190E-01    0.581E-02
DAV:   6    -0.672341114906E+02   -0.93334E-03   -0.79347E-04  1044   0.137E-01    0.495E-02
DAV:   7    -0.672342196188E+02   -0.10813E-03   -0.12877E-04  1116   0.504E-02    0.239E-02
DAV:   8    -0.672343491782E+02   -0.12956E-03   -0.32554E-04   996   0.670E-02    0.219E-02
DAV:   9    -0.672343264026E+02    0.22776E-04   -0.15420E-05  1200   0.192E-02    0.990E-03
DAV:  10    -0.672342970754E+02    0.29327E-04   -0.38641E-05  1080   0.285E-02    0.970E-03
DAV:  11    -0.672343092971E+02   -0.12222E-04   -0.61589E-06  1056   0.115E-02    0.438E-03
DAV:  12    -0.672343182411E+02   -0.89440E-05   -0.26443E-06   960   0.759E-03    0.114E-03
DAV:  13    -0.672343298691E+02   -0.11628E-04   -0.87176E-07   900   0.317E-03    0.749E-04
DAV:  14    -0.672343309288E+02   -0.10597E-05   -0.43861E-08   984   0.911E-04    0.289E-04
DAV:  15    -0.672343316017E+02   -0.67291E-06   -0.43656E-08   792   0.784E-04
  13 F= -.67234332E+02 E0= -.67234332E+02  d E =-.381120E-02
       N       E                     dE             d eps       ncg     rms          rms(c)
DAV:   1    -0.672343776168E+02   -0.46688E-04   -0.41238E-04  1044   0.109E-01    0.133E-02
DAV:   2    -0.672343691178E+02    0.84990E-05   -0.90158E-06   960   0.154E-02    0.698E-03
DAV:   3    -0.672343643488E+02    0.47690E-05   -0.93561E-06  1044   0.135E-02    0.193E-03
DAV:   4    -0.672343643433E+02    0.54436E-08   -0.27982E-07   900   0.291E-03
  14 F= -.67234364E+02 E0= -.67234364E+02  d E =-.327416E-04
       N       E                     dE             d eps       ncg     rms          rms(c)
DAV:   1    -0.672345714516E+02   -0.20710E-03   -0.36805E-03   960   0.325E-01    0.396E-02
DAV:   2    -0.672344935016E+02    0.77950E-04   -0.79543E-05   948   0.463E-02    0.208E-02
DAV:   3    -0.672344517227E+02    0.41779E-04   -0.87728E-05  1188   0.413E-02    0.601E-03
DAV:   4    -0.672344536843E+02   -0.19616E-05   -0.29061E-06   924   0.901E-03    0.280E-03
DAV:   5    -0.672344553914E+02   -0.17070E-05   -0.12708E-06   744   0.513E-03    0.144E-03
DAV:   6    -0.672344620802E+02   -0.66888E-05   -0.79379E-07   828   0.390E-03    0.135E-03
DAV:   7    -0.672344650488E+02   -0.29686E-05   -0.23240E-07   936   0.167E-03    0.823E-04
DAV:   8    -0.672344679463E+02   -0.28975E-05   -0.59428E-07   912   0.275E-03    0.768E-04
DAV:   9    -0.672344682295E+02   -0.28325E-06   -0.82174E-08   936   0.121E-03
  15 F= -.67234468E+02 E0= -.67234468E+02  d E =-.136628E-03
       N       E                     dE             d eps       ncg     rms          rms(c)
DAV:   1    -0.672350832795E+02   -0.61533E-03   -0.14903E-02  1128   0.653E-01    0.800E-02
DAV:   2    -0.672347859274E+02    0.29735E-03   -0.32402E-04   960   0.922E-02    0.419E-02
DAV:   3    -0.672346314900E+02    0.15444E-03   -0.33296E-04  1092   0.809E-02    0.115E-02
DAV:   4    -0.672346348205E+02   -0.33305E-05   -0.10875E-05   936   0.175E-02    0.522E-03
DAV:   5    -0.672346370420E+02   -0.22214E-05   -0.49206E-06   948   0.973E-03    0.277E-03
DAV:   6    -0.672346526209E+02   -0.15579E-04   -0.19867E-06   960   0.610E-03    0.248E-03
DAV:   7    -0.672346588624E+02   -0.62415E-05   -0.45928E-07   924   0.230E-03    0.163E-03
DAV:   8    -0.672346665044E+02   -0.76421E-05   -0.22887E-06  1104   0.509E-03    0.163E-03
DAV:   9    -0.672346671107E+02   -0.60622E-06   -0.38007E-07   936   0.275E-03
  16 F= -.67234667E+02 E0= -.67234667E+02  d E =-.335509E-03
       N       E                     dE             d eps       ncg     rms          rms(c)
DAV:   1    -0.672367121978E+02   -0.20457E-02   -0.59793E-02  1116   0.131E+00    0.160E-01
DAV:   2    -0.672355324532E+02    0.11797E-02   -0.12973E-03  1008   0.185E-01    0.839E-02
DAV:   3    -0.672349400496E+02    0.59240E-03   -0.13349E-03  1188   0.162E-01    0.231E-02
DAV:   4    -0.672349502437E+02   -0.10194E-04   -0.45116E-05   948   0.353E-02    0.104E-02
DAV:   5    -0.672349581449E+02   -0.79012E-05   -0.19433E-05   948   0.193E-02    0.569E-03
DAV:   6    -0.672350072139E+02   -0.49069E-04   -0.88750E-06   996   0.130E-02    0.502E-03
DAV:   7    -0.672350229332E+02   -0.15719E-04   -0.18183E-06  1104   0.464E-03    0.317E-03
DAV:   8    -0.672350421206E+02   -0.19187E-04   -0.70833E-06   984   0.907E-03    0.283E-03
DAV:   9    -0.672350429348E+02   -0.81423E-06   -0.36286E-07   996   0.272E-03
  17 F= -.67235043E+02 E0= -.67235043E+02  d E =-.711333E-03
       N       E                     dE             d eps       ncg     rms          rms(c)
DAV:   1    -0.672424542637E+02   -0.74121E-02   -0.24154E-01  1152   0.263E+00    0.323E-01
DAV:   2    -0.672377063191E+02    0.47479E-02   -0.52783E-03  1044   0.371E-01    0.169E-01
DAV:   3    -0.672354301466E+02    0.22762E-02   -0.52890E-03  1212   0.323E-01    0.457E-02
DAV:   4    -0.672354704243E+02   -0.40278E-04   -0.18045E-04   972   0.705E-02    0.204E-02
DAV:   5    -0.672354983006E+02   -0.27876E-04   -0.77945E-05   960   0.388E-02    0.112E-02
DAV:   6    -0.672356354206E+02   -0.13712E-03   -0.34174E-05  1008   0.255E-02    0.959E-03
DAV:   7    -0.672356753571E+02   -0.39937E-04   -0.65265E-06  1116   0.884E-03    0.613E-03
DAV:   8    -0.672357138175E+02   -0.38460E-04   -0.21947E-05   972   0.163E-02    0.515E-03
DAV:   9    -0.672357141594E+02   -0.34195E-06   -0.12789E-06  1080   0.509E-03
  18 F= -.67235714E+02 E0= -.67235714E+02  d E =-.138256E-02
       N       E                     dE             d eps       ncg     rms          rms(c)
DAV:   1    -0.672639812440E+02   -0.28267E-01   -0.98152E-01  1092   0.532E+00    0.651E-01
DAV:   2    -0.672448840696E+02    0.19097E-01   -0.20968E-02   996   0.750E-01    0.340E-01
DAV:   3    -0.672360887339E+02    0.87953E-02   -0.21875E-02  1248   0.657E-01    0.937E-02
DAV:   4    -0.672361505881E+02   -0.61854E-04   -0.77464E-04  1008   0.145E-01    0.416E-02
DAV:   5    -0.672361888175E+02   -0.38229E-04   -0.31905E-04  1032   0.793E-02    0.234E-02
DAV:   6    -0.672365446494E+02   -0.35583E-03   -0.13937E-04   996   0.542E-02    0.201E-02
DAV:   7    -0.672366441281E+02   -0.99479E-04   -0.26396E-05  1104   0.191E-02    0.126E-02
DAV:   8    -0.672367149011E+02   -0.70773E-04   -0.83063E-05   972   0.337E-02    0.113E-02
DAV:   9    -0.672367105037E+02    0.43973E-05   -0.49241E-06  1188   0.104E-02    0.507E-03
DAV:  10    -0.672367081958E+02    0.23079E-05   -0.11323E-05  1032   0.153E-02    0.714E-03
DAV:  11    -0.672367091791E+02   -0.98328E-06   -0.27460E-06  1056   0.758E-03
  19 F= -.67236709E+02 E0= -.67236709E+02  d E =-.237758E-02
