       N       E                     dE             d eps       ncg     rms          rms(c)
DAV:   1     0.213979232574E+03    0.21398E+03   -0.10526E+04   912   0.827E+02
DAV:   2    -0.410794246554E+02   -0.25506E+03   -0.23927E+03  1344   0.197E+02
DAV:   3    -0.714630130801E+02   -0.30384E+02   -0.30137E+02  1236   0.820E+01
DAV:   4    -0.721168170571E+02   -0.65380E+00   -0.65237E+00  1236   0.149E+01
DAV:   5    -0.721385735881E+02   -0.21757E-01   -0.21703E-01  1272   0.244E+00    0.128E+01
DAV:   6    -0.680762183172E+02    0.40624E+01   -0.34359E+00  1188   0.851E+00    0.735E+00
DAV:   7    -0.663491383254E+02    0.17271E+01   -0.48389E+00  1344   0.995E+00    0.165E+00
DAV:   8    -0.663126950659E+02    0.36443E-01   -0.13529E-01  1320   0.180E+00    0.243E-01
DAV:   9    -0.663031981184E+02    0.94969E-02   -0.65447E-03  1152   0.389E-01    0.163E-01
DAV:  10    -0.662944590817E+02    0.87390E-02   -0.94387E-03  1080   0.333E-01    0.754E-02
DAV:  11    -0.662923364935E+02    0.21226E-02   -0.32926E-03   996   0.224E-01    0.575E-02
DAV:  12    -0.662926833797E+02   -0.34689E-03   -0.58003E-04   936   0.981E-02    0.329E-02
DAV:  13    -0.662945350568E+02   -0.18517E-02   -0.21394E-04  1116   0.611E-02    0.212E-02
DAV:  14    -0.662970034501E+02   -0.24684E-02   -0.46828E-04   996   0.668E-02    0.170E-02
DAV:  15    -0.662976366215E+02   -0.63317E-03   -0.62637E-05  1104   0.303E-02    0.926E-03
DAV:  16    -0.662979420090E+02   -0.30539E-03   -0.20221E-05   948   0.179E-02    0.192E-03
DAV:  17    -0.662979691751E+02   -0.27166E-04   -0.86288E-07   996   0.422E-03    0.114E-03
DAV:  18    -0.662979824903E+02   -0.13315E-04   -0.32761E-07   744   0.268E-03    0.414E-04
DAV:  19    -0.662979828326E+02   -0.34233E-06   -0.24891E-08   924   0.821E-04
   1 F= -.66297983E+02 E0= -.66297915E+02  d E =-.662980E+02
       N       E                     dE             d eps       ncg     rms          rms(c)
DAV:   1    -0.638490699097E+02    0.24489E+01   -0.74777E+02   912   0.158E+02    0.102E+01
DAV:   2    -0.632763976726E+02    0.57267E+00   -0.20567E+01  1320   0.307E+01    0.427E+00
DAV:   3    -0.629843451636E+02    0.29205E+00   -0.27001E+00  1020   0.874E+00    0.182E+00
DAV:   4    -0.629704238134E+02    0.13921E-01   -0.15376E-01  1224   0.233E+00    0.854E-01
DAV:   5    -0.629660354639E+02    0.43883E-02   -0.15453E-02  1152   0.690E-01    0.138E-01
DAV:   6    -0.629662080483E+02   -0.17258E-03   -0.90381E-04  1104   0.175E-01    0.638E-02
DAV:   7    -0.629663645416E+02   -0.15649E-03   -0.18094E-04   924   0.854E-02    0.132E-02
DAV:   8    -0.629664890423E+02   -0.12450E-03   -0.26855E-05  1008   0.262E-02    0.919E-03
DAV:   9    -0.629667340643E+02   -0.24502E-03   -0.61618E-05   948   0.283E-02    0.695E-03
DAV:  10    -0.629668108457E+02   -0.76781E-04   -0.94024E-06  1092   0.110E-02    0.348E-03
DAV:  11    -0.629668535545E+02   -0.42709E-04   -0.32861E-06  1104   0.819E-03    0.251E-03
DAV:  12    -0.629669141986E+02   -0.60644E-04   -0.26928E-06  1020   0.663E-03    0.152E-03
DAV:  13    -0.629669236622E+02   -0.94637E-05   -0.18683E-07   840   0.194E-03    0.932E-04
DAV:  14    -0.629669343892E+02   -0.10727E-04   -0.46972E-07   768   0.249E-03    0.595E-04
DAV:  15    -0.629669351110E+02   -0.72180E-06   -0.36641E-08   792   0.918E-04
   2 F= -.62966935E+02 E0= -.62966935E+02  d E =0.333105E+01
       N       E                     dE             d eps       ncg     rms          rms(c)
DAV:   1    -0.677761177383E+02   -0.48092E+01   -0.34741E+02   912   0.114E+02    0.504E+00
DAV:   2    -0.673073464238E+02    0.46877E+00   -0.72598E+00  1200   0.166E+01    0.326E+00
DAV:   3    -0.672315383488E+02    0.75808E-01   -0.94632E-01  1080   0.565E+00    0.179E+00
DAV:   4    -0.672287082874E+02    0.28301E-02   -0.15046E-01  1200   0.181E+00    0.623E-01
DAV:   5    -0.672258563420E+02    0.28519E-02   -0.27582E-02  1140   0.990E-01    0.136E-01
DAV:   6    -0.672258995341E+02   -0.43192E-04   -0.37932E-03  1116   0.368E-01    0.725E-02
DAV:   7    -0.672260698390E+02   -0.17030E-03   -0.48492E-04  1212   0.118E-01    0.344E-02
DAV:   8    -0.672261351577E+02   -0.65319E-04   -0.24556E-04  1140   0.755E-02    0.149E-02
DAV:   9    -0.672262808797E+02   -0.14572E-03   -0.50172E-05   984   0.310E-02    0.958E-03
DAV:  10    -0.672263197957E+02   -0.38916E-04   -0.10621E-05  1128   0.127E-02    0.674E-03
DAV:  11    -0.672263298518E+02   -0.10056E-04   -0.84194E-06  1044   0.953E-03    0.220E-03
DAV:  12    -0.672263337271E+02   -0.38753E-05   -0.61839E-07  1008   0.348E-03    0.174E-03
DAV:  13    -0.672263362832E+02   -0.25560E-05   -0.21793E-07   960   0.228E-03    0.116E-03
DAV:  14    -0.672263400469E+02   -0.37638E-05   -0.31287E-07   732   0.233E-03    0.631E-04
DAV:  15    -0.672263404920E+02   -0.44507E-06   -0.25461E-08   780   0.710E-04
   3 F= -.67226340E+02 E0= -.67226340E+02  d E =-.928358E+00
       N       E                     dE             d eps       ncg     rms          rms(c)
DAV:   1    -0.672263970464E+02   -0.56999E-04   -0.54811E-03   912   0.445E-01    0.207E-02
DAV:   2    -0.672263894348E+02    0.76116E-05   -0.92271E-05  1116   0.624E-02    0.106E-02
DAV:   3    -0.672263880775E+02    0.13573E-05   -0.18606E-05   936   0.242E-02    0.421E-03
DAV:   4    -0.672263881259E+02   -0.48418E-07   -0.27380E-06  1284   0.833E-03
   4 F= -.67226388E+02 E0= -.67226388E+02  d E =-.928405E+00
       N       E                     dE             d eps       ncg     rms          rms(c)
DAV:   1    -0.672281588218E+02   -0.17707E-02   -0.49404E-01  1044   0.455E+00    0.447E-01
DAV:   2    -0.672244135190E+02    0.37453E-02   -0.79820E-03  1068   0.529E-01    0.270E-01
DAV:   3    -0.672225537790E+02    0.18597E-02   -0.46840E-03  1224   0.319E-01    0.521E-02
DAV:   4    -0.672224376947E+02    0.11608E-03   -0.75126E-04  1188   0.136E-01    0.223E-02
DAV:   5    -0.672224323087E+02    0.53860E-05   -0.64587E-05  1104   0.407E-02    0.967E-03
DAV:   6    -0.672224847365E+02   -0.52428E-04   -0.56307E-06   996   0.103E-02    0.405E-03
DAV:   7    -0.672225346915E+02   -0.49955E-04   -0.91653E-06   984   0.108E-02    0.258E-03
DAV:   8    -0.672225708310E+02   -0.36139E-04   -0.70801E-06  1068   0.770E-03    0.118E-03
DAV:   9    -0.672225769493E+02   -0.61183E-05   -0.11190E-06  1200   0.384E-03    0.757E-04
DAV:  10    -0.672225782472E+02   -0.12980E-05   -0.45377E-07   912   0.258E-03    0.505E-04
DAV:  11    -0.672225793217E+02   -0.10744E-05   -0.12060E-07   924   0.163E-03    0.298E-04
DAV:  12    -0.672225798694E+02   -0.54768E-06   -0.42460E-08   840   0.922E-04
   5 F= -.67222580E+02 E0= -.67222580E+02  d E =0.380826E-02
       N       E                     dE             d eps       ncg     rms          rms(c)
DAV:   1    -0.672323175325E+02   -0.97382E-02   -0.16832E-01  1020   0.267E+00    0.261E-01
DAV:   2    -0.672310736477E+02    0.12439E-02   -0.27138E-03  1212   0.309E-01    0.158E-01
DAV:   3    -0.672304759218E+02    0.59773E-03   -0.15679E-03  1116   0.186E-01    0.299E-02
DAV:   4    -0.672304288037E+02    0.47118E-04   -0.24713E-04  1224   0.785E-02    0.127E-02
DAV:   5    -0.672304213100E+02    0.74937E-05   -0.21199E-05  1176   0.233E-02    0.565E-03
DAV:   6    -0.672304300432E+02   -0.87332E-05   -0.11577E-06   816   0.532E-03    0.228E-03
DAV:   7    -0.672304422335E+02   -0.12190E-04   -0.22791E-06   912   0.588E-03    0.155E-03
DAV:   8    -0.672304586439E+02   -0.16410E-04   -0.21891E-06   960   0.495E-03    0.818E-04
DAV:   9    -0.672304615328E+02   -0.28889E-05   -0.84748E-08   960   0.139E-03    0.459E-04
DAV:  10    -0.672304659918E+02   -0.44590E-05   -0.22299E-07   912   0.149E-03    0.338E-04
DAV:  11    -0.672304692945E+02   -0.33027E-05   -0.50485E-08   888   0.827E-04    0.232E-04
DAV:  12    -0.672304704532E+02   -0.11587E-05   -0.11997E-08   816   0.394E-04    0.210E-04
DAV:  13    -0.672304713291E+02   -0.87587E-06   -0.20371E-08   684   0.471E-04
   6 F= -.67230471E+02 E0= -.67230471E+02  d E =-.408320E-02
       N       E                     dE             d eps       ncg     rms          rms(c)
DAV:   1    -0.672306852541E+02   -0.21480E-03   -0.47650E-02   912   0.130E+00    0.604E-02
DAV:   2    -0.672306109555E+02    0.74299E-04   -0.85860E-04   960   0.177E-01    0.387E-02
DAV:   3    -0.672305414878E+02    0.69468E-04   -0.17384E-04  1140   0.701E-02    0.116E-02
DAV:   4    -0.672305345304E+02    0.69574E-05   -0.24176E-05  1248   0.250E-02    0.489E-03
DAV:   5    -0.672305339282E+02    0.60224E-06   -0.34667E-06  1008   0.857E-03
   7 F= -.67230534E+02 E0= -.67230534E+02  d E =-.625991E-04
       N       E                     dE             d eps       ncg     rms          rms(c)
DAV:   1    -0.672306328701E+02   -0.98340E-04   -0.89377E-03   960   0.563E-01    0.261E-02
DAV:   2    -0.672306248683E+02    0.80018E-05   -0.16023E-04   960   0.759E-02    0.167E-02
DAV:   3    -0.672306185292E+02    0.63392E-05   -0.30822E-05  1068   0.296E-02    0.507E-03
DAV:   4    -0.672306186023E+02   -0.73093E-07   -0.42912E-06  1176   0.105E-02
   8 F= -.67230619E+02 E0= -.67230619E+02  d E =-.147273E-03
       N       E                     dE             d eps       ncg     rms          rms(c)
DAV:   1    -0.672309910250E+02   -0.37250E-03   -0.77211E-03  1248   0.468E-01    0.577E-02
DAV:   2    -0.672308392598E+02    0.15177E-03   -0.18272E-04   996   0.691E-02    0.300E-02
DAV:   3    -0.672307640048E+02    0.75255E-04   -0.17016E-04  1008   0.584E-02    0.859E-03
DAV:   4    -0.672307635452E+02    0.45957E-06   -0.64039E-06  1260   0.133E-02
   9 F= -.67230764E+02 E0= -.67230764E+02  d E =-.144943E-03
       N       E                     dE             d eps       ncg     rms          rms(c)
DAV:   1    -0.672331711388E+02   -0.24071E-02   -0.68058E-02  1032   0.140E+00    0.170E-01
DAV:   2    -0.672317659650E+02    0.14052E-02   -0.15665E-03  1008   0.208E-01    0.896E-02
DAV:   3    -0.672310864669E+02    0.67950E-03   -0.16711E-03  1176   0.182E-01    0.275E-02
DAV:   4    -0.672311043708E+02   -0.17904E-04   -0.68423E-05  1056   0.432E-02    0.133E-02
DAV:   5    -0.672311201792E+02   -0.15808E-04   -0.28100E-05   996   0.232E-02    0.710E-03
DAV:   6    -0.672311858473E+02   -0.65668E-04   -0.16869E-05   960   0.187E-02    0.742E-03
DAV:   7    -0.672312021162E+02   -0.16269E-04   -0.31759E-06  1128   0.761E-03    0.363E-03
DAV:   8    -0.672312248019E+02   -0.22686E-04   -0.96513E-06  1020   0.111E-02    0.365E-03
DAV:   9    -0.672312260129E+02   -0.12110E-05   -0.30961E-07  1032   0.279E-03    0.209E-03
DAV:  10    -0.672312267746E+02   -0.76168E-06   -0.14057E-06   864   0.555E-03
  10 F= -.67231227E+02 E0= -.67231227E+02  d E =-.608172E-03
       N       E                     dE             d eps       ncg     rms          rms(c)
DAV:   1    -0.672398228686E+02   -0.85969E-02   -0.27744E-01  1104   0.282E+00    0.345E-01
DAV:   2    -0.672343131353E+02    0.55097E-02   -0.64417E-03  1032   0.418E-01    0.181E-01
DAV:   3    -0.672317180793E+02    0.25951E-02   -0.65632E-03  1188   0.361E-01    0.542E-02
DAV:   4    -0.672317479232E+02   -0.29844E-04   -0.27395E-04  1164   0.861E-02    0.256E-02
DAV:   5    -0.672317549202E+02   -0.69971E-05   -0.10524E-04  1044   0.452E-02    0.138E-02
DAV:   6    -0.672319309945E+02   -0.17607E-03   -0.55094E-05   984   0.343E-02    0.131E-02
DAV:   7    -0.672319632695E+02   -0.32275E-04   -0.80025E-06  1152   0.123E-02    0.687E-03
DAV:   8    -0.672320170765E+02   -0.53807E-04   -0.29338E-05  1032   0.195E-02    0.605E-03
DAV:   9    -0.672320202020E+02   -0.31255E-05   -0.90483E-07  1056   0.480E-03    0.371E-03
DAV:  10    -0.672320216491E+02   -0.14471E-05   -0.43254E-06  1104   0.949E-03    0.295E-03
DAV:  11    -0.672320237078E+02   -0.20587E-05   -0.43900E-07   960   0.327E-03    0.155E-03
DAV:  12    -0.672320243477E+02   -0.63989E-06   -0.26945E-07   864   0.252E-03
  11 F= -.67232024E+02 E0= -.67232024E+02  d E =-.140575E-02
       N       E                     dE             d eps       ncg     rms          rms(c)
DAV:   1    -0.672647587650E+02   -0.32735E-01   -0.11280E+00  1044   0.569E+00    0.695E-01
DAV:   2    -0.672424834503E+02    0.22275E-01   -0.25501E-02  1020   0.841E-01    0.365E-01
DAV:   3    -0.672325451384E+02    0.99383E-02   -0.26862E-02  1248   0.729E-01    0.110E-01
DAV:   4    -0.672326089758E+02   -0.63837E-04   -0.11411E-03  1116   0.175E-01    0.520E-02
DAV:   5    -0.672326307369E+02   -0.21761E-04   -0.42324E-04  1080   0.915E-02    0.284E-02
DAV:   6    -0.672330466756E+02   -0.41594E-03   -0.21115E-04  1008   0.693E-02    0.263E-02
DAV:   7    -0.672331348399E+02   -0.88164E-04   -0.36132E-05  1164   0.265E-02    0.130E-02
DAV:   8    -0.672332540750E+02   -0.11924E-03   -0.10525E-04  1020   0.382E-02    0.125E-02
DAV:   9    -0.672332579838E+02   -0.39087E-05   -0.39981E-06  1272   0.993E-03    0.667E-03
DAV:  10    -0.672332581927E+02   -0.20897E-06   -0.13358E-05  1116   0.169E-02    0.510E-03
DAV:  11    -0.672332641752E+02   -0.59824E-05   -0.10937E-06   912   0.533E-03    0.354E-03
DAV:  12    -0.672332675547E+02   -0.33795E-05   -0.13291E-06   876   0.543E-03    0.710E-04
DAV:  13    -0.672332729458E+02   -0.53911E-05   -0.36708E-07   708   0.272E-03    0.759E-04
DAV:  14    -0.672332731045E+02   -0.15866E-06   -0.30639E-08   972   0.919E-04
  12 F= -.67233273E+02 E0= -.67233273E+02  d E =-.265450E-02
