 vasp.5.4.4.18Apr17-6-g9f103f2a35 (build Mar 30 2023 15:39:25) complex          
  
 executed on             LinuxIFC date 2023.06.14  15:37:17
 running on   12 total cores
 distrk:  each k-point on   12 cores,    1 groups
 distr:  one band on NCORES_PER_BAND=   1 cores,   12 groups


--------------------------------------------------------------------------------------------------------


 INCAR:
 POTCAR:    PAW_PBE B 06Sep2000                   
 POTCAR:    PAW_PBE C 08Apr2002                   

 ----------------------------------------------------------------------------- 
|                                                                             |
|           W    W    AA    RRRRR   N    N  II  N    N   GGGG   !!!           |
|           W    W   A  A   R    R  NN   N  II  NN   N  G    G  !!!           |
|           W    W  A    A  R    R  N N  N  II  N N  N  G       !!!           |
|           W WW W  AAAAAA  RRRRR   N  N N  II  N  N N  G  GGG   !            |
|           WW  WW  A    A  R   R   N   NN  II  N   NN  G    G                |
|           W    W  A    A  R    R  N    N  II  N    N   GGGG   !!!           |
|                                                                             |
|      For optimal performance we recommend to set                            |
|        NCORE= 4 - approx SQRT( number of cores)                             |
|      NCORE specifies how many cores store one orbital (NPAR=cpu/NCORE).     |
|      This setting can  greatly improve the performance of VASP for DFT.     |
|      The default,   NCORE=1            might be grossly inefficient         |
|      on modern multi-core architectures or massively parallel machines.     |
|      Do your own testing !!!!                                               |
|      Unfortunately you need to use the default for GW and RPA calculations. |
|      (for HF NCORE is supported but not extensively tested yet)             |
|                                                                             |
 ----------------------------------------------------------------------------- 

 POTCAR:    PAW_PBE B 06Sep2000                   
   SHA256 =  a32ced30f5ae56fd4d10b4325ff17eb3e4e38ee0f4288bc219fb012fddfa6e97 B/
   COPYR  = (c) Copyright 06Sep2000 Georg Kresse                                
   COPYR  = This file is part of the software VASP. Any use, copying, and all ot
   COPYR  = If you do not have a valid VASP license, you may not use, copy or di
   VRHFIN =B: s2p1                                                              
   LEXCH  = PE                                                                  
   EATOM  =    71.1703 eV,    5.2309 Ry                                         
                                                                                
   TITEL  = PAW_PBE B 06Sep2000                                                 
   LULTRA =        F    use ultrasoft PP ?                                      
   IUNSCR =        1    unscreen: 0-lin 1-nonlin 2-no                           
   RPACOR =    1.200    partial core radius                                     
   POMASS =   10.811; ZVAL   =    3.000    mass and valenz                      
   RCORE  =    1.700    outmost cutoff radius                                   
   RWIGS  =    1.710; RWIGS  =    0.905    wigner-seitz radius (au A)           
   ENMAX  =  318.614; ENMIN  =  238.960 eV                                      
   ICORE  =        2    local potential                                         
   LCOR   =        T    correct aug charges                                     
   LPAW   =        T    paw PP                                                  
   EAUG   =  535.514                                                            
   DEXC   =    0.000                                                            
   RMAX   =    1.732    core radius for proj-oper                               
   RAUG   =    1.300    factor for augmentation sphere                          
   RDEP   =    1.757    radius for radial grids                                 
   RDEPT  =    1.436    core radius for aug-charge                              
                                                                                
   Atomic configuration                                                         
    4 entries                                                                   
     n  l   j            E        occ.                                          
     1  0  0.50      -180.5896   2.0000                                         
     2  0  0.50        -9.4431   2.0000                                         
     2  1  0.50        -3.6068   1.0000                                         
     3  2  1.50        -4.0817   0.0000                                         
   Description                                                                  
     l       E           TYP  RCUT    TYP  RCUT                                 
     0     -9.4430752     23  1.500                                             
     0      0.8675899     23  1.500                                             
     1     -3.6067955     23  1.700                                             
     1      6.1086146     23  1.700                                             
     2     -4.0817478      7  1.700                                             
  local pseudopotential read in
  partial core-charges read in
  partial kinetic energy density read in
  atomic valenz-charges read in
  non local Contribution for L=           0  read in
    real space projection operators read in
  non local Contribution for L=           0  read in
    real space projection operators read in
  non local Contribution for L=           1  read in
    real space projection operators read in
  non local Contribution for L=           1  read in
    real space projection operators read in
    PAW grid and wavefunctions read in
 
   number of l-projection  operators is LMAX  =           4
   number of lm-projection operators is LMMAX =           8
 
 POTCAR:    PAW_PBE C 08Apr2002                   
   SHA256 =  253f7b50bb8d59471dbedb8285d89021f4a42ed1a2c5d38a03a736e69125dd95 C/
   COPYR  = (c) Copyright 08Apr2002 Georg Kresse                                
   COPYR  = This file is part of the software VASP. Any use, copying, and all ot
   COPYR  = If you do not have a valid VASP license, you may not use, copy or di
   VRHFIN =C: s2p2                                                              
   LEXCH  = PE                                                                  
   EATOM  =   147.1560 eV,   10.8157 Ry                                         
                                                                                
   TITEL  = PAW_PBE C 08Apr2002                                                 
   LULTRA =        F    use ultrasoft PP ?                                      
   IUNSCR =        1    unscreen: 0-lin 1-nonlin 2-no                           
   RPACOR =    1.200    partial core radius                                     
   POMASS =   12.011; ZVAL   =    4.000    mass and valenz                      
   RCORE  =    1.500    outmost cutoff radius                                   
   RWIGS  =    1.630; RWIGS  =    0.863    wigner-seitz radius (au A)           
   ENMAX  =  400.000; ENMIN  =  300.000 eV                                      
   ICORE  =        2    local potential                                         
   LCOR   =        T    correct aug charges                                     
   LPAW   =        T    paw PP                                                  
   EAUG   =  644.873                                                            
   DEXC   =    0.000                                                            
   RMAX   =    1.529    core radius for proj-oper                               
   RAUG   =    1.300    factor for augmentation sphere                          
   RDEP   =    1.501    radius for radial grids                                 
   RDEPT  =    1.300    core radius for aug-charge                              
                                                                                
   Atomic configuration                                                         
    4 entries                                                                   
     n  l   j            E        occ.                                          
     1  0  0.50      -273.3789   2.0000                                         
     2  0  0.50       -13.7508   2.0000                                         
     2  1  0.50        -5.2854   2.0000                                         
     3  2  1.50        -5.4423   0.0000                                         
   Description                                                                  
     l       E           TYP  RCUT    TYP  RCUT                                 
     0    -13.7508458     23  1.200                                             
     0     -8.2022199     23  1.200                                             
     1     -5.2854383     23  1.500                                             
     1     34.0145650     23  1.500                                             
     2     -5.4423304      7  1.500                                             
  local pseudopotential read in
  partial core-charges read in
  partial kinetic energy density read in
  atomic valenz-charges read in
  non local Contribution for L=           0  read in
    real space projection operators read in
  non local Contribution for L=           0  read in
    real space projection operators read in
  non local Contribution for L=           1  read in
    real space projection operators read in
  non local Contribution for L=           1  read in
    real space projection operators read in
    PAW grid and wavefunctions read in
 
   number of l-projection  operators is LMAX  =           4
   number of lm-projection operators is LMMAX =           8
 
  PAW_PBE B 06Sep2000                   :
 energy of atom  1       EATOM=  -71.1703
 kinetic energy error for atom=    0.0015 (will be added to EATOM!!)
  PAW_PBE C 08Apr2002                   :
 energy of atom  2       EATOM= -147.1560
 kinetic energy error for atom=    0.0116 (will be added to EATOM!!)
 
 
 POSCAR: BC3 with lattice parameter 5.174Ang, len
  positions in direct lattice
  No initial velocities read in
 exchange correlation table for  LEXCH =        8
   RHO(1)=    0.500       N(1)  =     2000
   RHO(2)=  100.500       N(2)  =     4000
 


--------------------------------------------------------------------------------------------------------


 ion  position               nearest neighbor table
   1  0.333  0.667  0.250-   3 1.49   7 1.49   5 1.49
   2  0.667  0.333  0.250-   4 1.49   8 1.49   6 1.49
   3  0.167  0.333  0.250-   1 1.49   6 1.49   4 1.49
   4  0.333  0.167  0.250-   2 1.49   5 1.49   3 1.49
   5  0.167  0.833  0.250-   4 1.49   8 1.49   1 1.49
   6  0.833  0.167  0.250-   3 1.49   7 1.49   2 1.49
   7  0.667  0.833  0.250-   1 1.49   6 1.49   8 1.49
   8  0.833  0.667  0.250-   2 1.49   5 1.49   7 1.49
 
  LATTYP: Found a hexagonal cell.
 ALAT       =     5.1747000000
 C/A-ratio  =     2.8987187663
  
  Lattice vectors:
  
 A1 = (   4.4814220000,   2.5873500000,   0.0000000000)
 A2 = (  -4.4814220000,   2.5873500000,   0.0000000000)
 A3 = (   0.0000000000,   0.0000000000,  15.0000000000)


Analysis of symmetry for initial positions (statically):
=====================================================================
 Subroutine PRICEL returns:
 Original cell was already a primitive cell.
 

 Routine SETGRP: Setting up the symmetry group for a 
 hexagonal supercell.


 Subroutine GETGRP returns: Found 24 space group operations
 (whereof 12 operations were pure point group operations)
 out of a pool of 24 trial point group operations.


The static configuration has the point symmetry C_6v.
 The point group associated with its full space group is D_6h.


Analysis of symmetry for dynamics (positions and initial velocities):
=====================================================================
 Subroutine PRICEL returns:
 Original cell was already a primitive cell.
 

 Routine SETGRP: Setting up the symmetry group for a 
 hexagonal supercell.


 Subroutine GETGRP returns: Found 24 space group operations
 (whereof 12 operations were pure point group operations)
 out of a pool of 24 trial point group operations.


The dynamic configuration has the point symmetry C_6v.
 The point group associated with its full space group is D_6h.


 Subroutine INISYM returns: Found 24 space group operations
 (whereof 12 operations are pure point group operations),
 and found     1 'primitive' translations

 
 
 KPOINTS: K-points for BC3                        

Automatic generation of k-mesh.
Space group operators:
 irot       det(A)        alpha          n_x          n_y          n_z        tau_x        tau_y        tau_z
    1     1.000000     0.000000     1.000000     0.000000     0.000000     0.000000     0.000000     0.000000
    2     1.000000    60.000000     0.000000     0.000000    -1.000000     0.000000     0.000000     0.000000
    3     1.000000   120.000000     0.000000     0.000000    -1.000000     0.000000     0.000000     0.000000
    4     1.000000   180.000000     0.000000     0.000000     1.000000     0.000000     0.000000     0.000000
    5     1.000000   120.000000     0.000000     0.000000     1.000000     0.000000     0.000000     0.000000
    6     1.000000    60.000000     0.000000     0.000000     1.000000     0.000000     0.000000     0.000000
    7    -1.000000   180.000000     0.866025     0.500000     0.000000     0.000000     0.000000     0.000000
    8    -1.000000   180.000000     1.000000     0.000000     0.000000     0.000000     0.000000     0.000000
    9    -1.000000   180.000000     0.866025    -0.500000     0.000000     0.000000     0.000000     0.000000
   10    -1.000000   180.000000     0.500000    -0.866025     0.000000     0.000000     0.000000     0.000000
   11    -1.000000   179.999999     0.000000     1.000000     0.000000     0.000000     0.000000     0.000000
   12    -1.000000   180.000000    -0.500000    -0.866025     0.000000     0.000000     0.000000     0.000000
   13    -1.000000     0.000000     1.000000     0.000000     0.000000     0.000000     0.000000     0.500000
   14    -1.000000    60.000000     0.000000     0.000000    -1.000000     0.000000     0.000000     0.500000
   15    -1.000000   120.000000     0.000000     0.000000    -1.000000     0.000000     0.000000     0.500000
   16    -1.000000   180.000000     0.000000     0.000000     1.000000     0.000000     0.000000     0.500000
   17    -1.000000   120.000000     0.000000     0.000000     1.000000     0.000000     0.000000     0.500000
   18    -1.000000    60.000000     0.000000     0.000000     1.000000     0.000000     0.000000     0.500000
   19     1.000000   180.000000     0.866025     0.500000     0.000000     0.000000     0.000000     0.500000
   20     1.000000   180.000000     1.000000     0.000000     0.000000     0.000000     0.000000     0.500000
   21     1.000000   180.000000     0.866025    -0.500000     0.000000     0.000000     0.000000     0.500000
   22     1.000000   180.000000     0.500000    -0.866025     0.000000     0.000000     0.000000     0.500000
   23     1.000000   179.999999     0.000000     1.000000     0.000000     0.000000     0.000000     0.500000
   24     1.000000   180.000000    -0.500000    -0.866025     0.000000     0.000000     0.000000     0.500000
 
 Subroutine IBZKPT returns following result:
 ===========================================
 
 Found     19 irreducible k-points:
 
 Following reciprocal coordinates:
            Coordinates               Weight
  0.000000  0.000000  0.000000      1.000000
  0.083333  0.000000  0.000000      6.000000
  0.166667 -0.000000  0.000000      6.000000
  0.250000  0.000000  0.000000      6.000000
  0.333333  0.000000  0.000000      6.000000
  0.416667  0.000000  0.000000      6.000000
  0.500000  0.000000  0.000000      3.000000
  0.083333  0.083333  0.000000      6.000000
  0.166667  0.083333  0.000000     12.000000
  0.250000  0.083333  0.000000     12.000000
  0.333333  0.083333  0.000000     12.000000
  0.416667  0.083333  0.000000     12.000000
  0.166667  0.166667  0.000000      6.000000
  0.250000  0.166667  0.000000     12.000000
  0.333333  0.166667  0.000000     12.000000
  0.416667  0.166667  0.000000      6.000000
  0.250000  0.250000  0.000000      6.000000
  0.333333  0.250000  0.000000     12.000000
  0.333333  0.333333  0.000000      2.000000
 
 Following cartesian coordinates:
            Coordinates               Weight
  0.000000  0.000000  0.000000      1.000000
  0.009298  0.016104  0.000000      6.000000
  0.018595  0.032208  0.000000      6.000000
  0.027893  0.048312  0.000000      6.000000
  0.037191  0.064416  0.000000      6.000000
  0.046488  0.080520  0.000000      6.000000
  0.055786  0.096624  0.000000      3.000000
  0.000000  0.032208  0.000000      6.000000
  0.009298  0.048312  0.000000     12.000000
  0.018595  0.064416  0.000000     12.000000
  0.027893  0.080520  0.000000     12.000000
  0.037191  0.096624  0.000000     12.000000
  0.000000  0.064416  0.000000      6.000000
  0.009298  0.080520  0.000000     12.000000
  0.018595  0.096624  0.000000     12.000000
  0.027893  0.112728  0.000000      6.000000
  0.000000  0.096624  0.000000      6.000000
  0.009298  0.112728  0.000000     12.000000
  0.000000  0.128832  0.000000      2.000000
 


--------------------------------------------------------------------------------------------------------




 Dimension of arrays:
   k-points           NKPTS =     19   k-points in BZ     NKDIM =     19   number of bands    NBANDS=     24
   number of dos      NEDOS =    301   number of ions     NIONS =      8
   non local maximal  LDIM  =      4   non local SUM 2l+1 LMDIM =      8
   total plane-waves  NPLWV = 139968
   max r-space proj   IRMAX =      1   max aug-charges    IRDMAX=   6474
   dimension x,y,z NGX =    36 NGY =   36 NGZ =  108
   dimension x,y,z NGXF=    72 NGYF=   72 NGZF=  216
   support grid    NGXF=    72 NGYF=   72 NGZF=  216
   ions per type =               2   6
   NGX,Y,Z   is equivalent  to a cutoff of  11.57, 11.57, 11.97 a.u.
   NGXF,Y,Z  is equivalent  to a cutoff of  23.13, 23.13, 23.94 a.u.

 SYSTEM =  BC3                                     
 POSCAR =  BC3 with lattice parameter 5.174Ang, len

 Startparameter for this run:
   NWRITE =      2    write-flag & timer
   PREC   = accura    normal or accurate (medium, high low for compatibility)
   ISTART =      0    job   : 0-new  1-cont  2-samecut
   ICHARG =      2    charge: 1-file 2-atom 10-const
   ISPIN  =      1    spin polarized calculation?
   LNONCOLLINEAR =      F non collinear calculations
   LSORBIT =      F    spin-orbit coupling
   INIWAV =      1    electr: 0-lowe 1-rand  2-diag
   LASPH  =      F    aspherical Exc in radial PAW
   METAGGA=      F    non-selfconsistent MetaGGA calc.

 Electronic Relaxation 1
   ENCUT  =  450.0 eV  33.07 Ry    5.75 a.u.   8.95  8.95 25.95*2*pi/ulx,y,z
   ENINI  =  450.0     initial cutoff
   ENAUG  =  644.9 eV  augmentation charge cutoff
   NELM   =     60;   NELMIN=  2; NELMDL= -5     # of ELM steps 
   EDIFF  = 0.1E-05   stopping-criterion for ELM
   LREAL  =      F    real-space projection
   NLSPLINE    = F    spline interpolate recip. space projectors
   LCOMPAT=      F    compatible to vasp.4.4
   GGA_COMPAT  = T    GGA compatible to vasp.4.4-vasp.4.6
   LMAXPAW     = -100 max onsite density
   LMAXMIX     =    2 max onsite mixed and CHGCAR
   VOSKOWN=      0    Vosko Wilk Nusair interpolation
   ROPT   =    0.00000   0.00000
 Ionic relaxation
   EDIFFG = -.1E-01   stopping-criterion for IOM
   NSW    =    128    number of steps for IOM
   NBLOCK =      1;   KBLOCK =    128    inner block; outer block 
   IBRION =      2    ionic relax: 0-MD 1-quasi-New 2-CG
   NFREE  =      1    steps in history (QN), initial steepest desc. (CG)
   ISIF   =      3    stress and relaxation
   IWAVPR =     11    prediction:  0-non 1-charg 2-wave 3-comb
   ISYM   =      2    0-nonsym 1-usesym 2-fastsym
   LCORR  =      T    Harris-Foulkes like correction to forces

   POTIM  = 0.5000    time-step for ionic-motion
   TEIN   =    0.0    initial temperature
   TEBEG  =    0.0;   TEEND  =   0.0 temperature during run
   SMASS  =  -3.00    Nose mass-parameter (am)
   estimated Nose-frequenzy (Omega)   =  0.10E-29 period in steps =****** mass=  -0.612E-27a.u.
   SCALEE = 1.0000    scale energy and forces
   NPACO  =    256;   APACO  = 16.0  distance and # of slots for P.C.
   PSTRESS=    0.0 pullay stress

  Mass of Ions in am
   POMASS =  10.81 12.01
  Ionic Valenz
   ZVAL   =   3.00  4.00
  Atomic Wigner-Seitz radii
   RWIGS  =  -1.00 -1.00
  virtual crystal weights 
   VCA    =   1.00  1.00
   NELECT =      30.0000    total number of electrons
   NUPDOWN=      -1.0000    fix difference up-down

 DOS related values:
   EMIN   =  10.00;   EMAX   =-10.00  energy-range for DOS
   EFERMI =   0.00
   ISMEAR =     0;   SIGMA  =   0.10  broadening in eV -4-tet -1-fermi 0-gaus

 Electronic relaxation 2 (details)
   IALGO  =     38    algorithm
   LDIAG  =      T    sub-space diagonalisation (order eigenvalues)
   LSUBROT=      F    optimize rotation matrix (better conditioning)
   TURBO    =      0    0=normal 1=particle mesh
   IRESTART =      0    0=no restart 2=restart with 2 vectors
   NREBOOT  =      0    no. of reboots
   NMIN     =      0    reboot dimension
   EREF     =   0.00    reference energy to select bands
   IMIX   =      4    mixing-type and parameters
     AMIX     =   0.40;   BMIX     =  1.00
     AMIX_MAG =   1.60;   BMIX_MAG =  1.00
     AMIN     =   0.10
     WC   =   100.;   INIMIX=   1;  MIXPRE=   1;  MAXMIX= -45

 Intra band minimization:
   WEIMIN = 0.0010     energy-eigenvalue tresh-hold
   EBREAK =  0.10E-07  absolut break condition
   DEPER  =   0.30     relativ break condition  

   TIME   =   0.40     timestep for ELM

  volume/ion in A,a.u.               =      43.48       293.43
  Fermi-wavevector in a.u.,A,eV,Ry     =   0.723299  1.366837  7.118042  0.523161
  Thomas-Fermi vector in A             =   1.813480
 
 Write flags
   LWAVE        =      T    write WAVECAR
   LDOWNSAMPLE  =      F    k-point downsampling of WAVECAR
   LCHARG       =      T    write CHGCAR
   LVTOT        =      F    write LOCPOT, total local potential
   LVHAR        =      F    write LOCPOT, Hartree potential only
   LELF         =      F    write electronic localiz. function (ELF)
   LORBIT       =      0    0 simple, 1 ext, 2 COOP (PROOUT), +10 PAW based schemes


 Dipole corrections
   LMONO  =      F    monopole corrections only (constant potential shift)
   LDIPOL =      F    correct potential (dipole corrections)
   IDIPOL =      0    1-x, 2-y, 3-z, 4-all directions 
   EPSILON=  1.0000000 bulk dielectric constant

 Exchange correlation treatment:
   GGA     =    --    GGA type
   LEXCH   =     8    internal setting for exchange type
   VOSKOWN=      0    Vosko Wilk Nusair interpolation
   LHFCALC =     F    Hartree Fock is set to
   LHFONE  =     F    Hartree Fock one center treatment
   AEXX    =    0.0000 exact exchange contribution

 Linear response parameters
   LEPSILON=     F    determine dielectric tensor
   LRPA    =     F    only Hartree local field effects (RPA)
   LNABLA  =     F    use nabla operator in PAW spheres
   LVEL    =     F    velocity operator in full k-point grid
   LINTERFAST=   F  fast interpolation
   KINTER  =     0    interpolate to denser k-point grid
   CSHIFT  =0.1000    complex shift for real part using Kramers Kronig
   OMEGAMAX=  -1.0    maximum frequency
   DEG_THRESHOLD= 0.2000000E-02 threshold for treating states as degnerate
   RTIME   =   -0.100 relaxation time in fs
  (WPLASMAI=    0.000 imaginary part of plasma frequency in eV, 0.658/RTIME)
   DFIELD  = 0.0000000 0.0000000 0.0000000 field for delta impulse in time
 
 Orbital magnetization related:
   ORBITALMAG=     F  switch on orbital magnetization
   LCHIMAG   =     F  perturbation theory with respect to B field
   DQ        =  0.001000  dq finite difference perturbation B field
   LLRAUG    =     F  two centre corrections for induced B field



--------------------------------------------------------------------------------------------------------


 conjugate gradient relaxation of ions
 charge density and potential will be updated during run
 non-spin polarized calculation
 Variant of blocked Davidson
 Davidson routine will perform the subspace rotation
 perform sub-space diagonalisation
    after iterative eigenvector-optimisation
 modified Broyden-mixing scheme, WC =      100.0
 initial mixing is a Kerker type mixing with AMIX =  0.4000 and BMIX =      1.0000
 Hartree-type preconditioning will be used
 using additional bands            9
 reciprocal scheme for non local part
 use partial core corrections
 calculate Harris-corrections to forces 
   (improved forces if not selfconsistent)
 use gradient corrections 
 use of overlap-Matrix (Vanderbilt PP)
 Gauss-broadening in eV      SIGMA  =   0.10


--------------------------------------------------------------------------------------------------------


  energy-cutoff  :      450.00
  volume of cell :      347.85
      direct lattice vectors                 reciprocal lattice vectors
     4.481422000  2.587350000  0.000000000     0.111571729  0.193247918  0.000000000
    -4.481422000  2.587350000  0.000000000    -0.111571729  0.193247918  0.000000000
     0.000000000  0.000000000 15.000000000     0.000000000  0.000000000  0.066666667

  length of vectors
     5.174700297  5.174700297 15.000000000     0.223143470  0.223143470  0.066666667


 
 k-points in units of 2pi/SCALE and weight: K-points for BC3                        
   0.00000000  0.00000000  0.00000000       0.007
   0.00929764  0.01610399  0.00000000       0.042
   0.01859529  0.03220799  0.00000000       0.042
   0.02789293  0.04831198  0.00000000       0.042
   0.03719058  0.06441597  0.00000000       0.042
   0.04648822  0.08051997  0.00000000       0.042
   0.05578586  0.09662396  0.00000000       0.021
   0.00000000  0.03220799  0.00000000       0.042
   0.00929764  0.04831198  0.00000000       0.083
   0.01859529  0.06441597  0.00000000       0.083
   0.02789293  0.08051997  0.00000000       0.083
   0.03719058  0.09662396  0.00000000       0.083
   0.00000000  0.06441597  0.00000000       0.042
   0.00929764  0.08051997  0.00000000       0.083
   0.01859529  0.09662396  0.00000000       0.083
   0.02789293  0.11272795  0.00000000       0.042
   0.00000000  0.09662396  0.00000000       0.042
   0.00929764  0.11272795  0.00000000       0.083
   0.00000000  0.12883195  0.00000000       0.014
 
 k-points in reciprocal lattice and weights: K-points for BC3                        
   0.00000000  0.00000000  0.00000000       0.007
   0.08333333  0.00000000  0.00000000       0.042
   0.16666667 -0.00000000  0.00000000       0.042
   0.25000000  0.00000000  0.00000000       0.042
   0.33333333  0.00000000  0.00000000       0.042
   0.41666667  0.00000000  0.00000000       0.042
   0.50000000  0.00000000  0.00000000       0.021
   0.08333333  0.08333333  0.00000000       0.042
   0.16666667  0.08333333  0.00000000       0.083
   0.25000000  0.08333333  0.00000000       0.083
   0.33333333  0.08333333  0.00000000       0.083
   0.41666667  0.08333333  0.00000000       0.083
   0.16666667  0.16666667  0.00000000       0.042
   0.25000000  0.16666667  0.00000000       0.083
   0.33333333  0.16666667  0.00000000       0.083
   0.41666667  0.16666667  0.00000000       0.042
   0.25000000  0.25000000  0.00000000       0.042
   0.33333333  0.25000000  0.00000000       0.083
   0.33333333  0.33333333  0.00000000       0.014
 
 position of ions in fractional coordinates (direct lattice) 
   0.33333300  0.66666600  0.25000000
   0.66666600  0.33333300  0.25000000
   0.16666600  0.33333300  0.25000000
   0.33333300  0.16666600  0.25000000
   0.16666600  0.83333300  0.25000000
   0.83333300  0.16666600  0.25000000
   0.66666600  0.83333300  0.25000000
   0.83333300  0.66666600  0.25000000
 
 position of ions in cartesian coordinates  (Angst):
  -1.49380584  2.58734741  3.75000000
   1.49380584  2.58734741  3.75000000
  -0.74690516  1.29367241  3.75000000
   0.74690516  1.29367241  3.75000000
  -2.98761616  2.58734741  3.75000000
   2.98761616  2.58734741  3.75000000
  -0.74690516  3.88102241  3.75000000
   0.74690516  3.88102241  3.75000000
 


--------------------------------------------------------------------------------------------------------


 k-point  1 :   0.0000 0.0000 0.0000  plane waves:    7497
 k-point  2 :   0.0833 0.0000 0.0000  plane waves:    7525
 k-point  3 :   0.1667-0.0000 0.0000  plane waves:    7527
 k-point  4 :   0.2500 0.0000 0.0000  plane waves:    7522
 k-point  5 :   0.3333 0.0000 0.0000  plane waves:    7542
 k-point  6 :   0.4167 0.0000 0.0000  plane waves:    7530
 k-point  7 :   0.5000 0.0000 0.0000  plane waves:    7544
 k-point  8 :   0.0833 0.0833 0.0000  plane waves:    7515
 k-point  9 :   0.1667 0.0833 0.0000  plane waves:    7517
 k-point 10 :   0.2500 0.0833 0.0000  plane waves:    7537
 k-point 11 :   0.3333 0.0833 0.0000  plane waves:    7525
 k-point 12 :   0.4167 0.0833 0.0000  plane waves:    7546
 k-point 13 :   0.1667 0.1667 0.0000  plane waves:    7543
 k-point 14 :   0.2500 0.1667 0.0000  plane waves:    7541
 k-point 15 :   0.3333 0.1667 0.0000  plane waves:    7557
 k-point 16 :   0.4167 0.1667 0.0000  plane waves:    7557
 k-point 17 :   0.2500 0.2500 0.0000  plane waves:    7535
 k-point 18 :   0.3333 0.2500 0.0000  plane waves:    7558
 k-point 19 :   0.3333 0.3333 0.0000  plane waves:    7569

 maximum and minimum number of plane-waves per node :      7569     7497

 maximum number of plane-waves:      7569
 maximum index in each direction: 
   IXMAX=    8   IYMAX=    8   IZMAX=   25
   IXMIN=   -9   IYMIN=   -9   IZMIN=  -25


 serial   3D FFT for wavefunctions
 parallel 3D FFT for charge:
    minimum data exchange during FFTs selected (reduces bandwidth)


 total amount of memory used by VASP MPI-rank0    68661. kBytes
=======================================================================

   base      :      30000. kBytes
   nonl-proj :      19384. kBytes
   fftplans  :       3727. kBytes
   grid      :      10879. kBytes
   one-center:         24. kBytes
   wavefun   :       4647. kBytes
 
     INWAV:  cpu time    0.0000: real time    0.0000
 Broyden mixing: mesh for mixing (old mesh)
   NGX = 17   NGY = 17   NGZ = 51
  (NGX  = 72   NGY  = 72   NGZ  =216)
  gives a total of  14739 points

 initial charge density was supplied:
 charge density of overlapping atoms calculated
 number of electron      30.0000000 magnetization 
 keeping initial charge density in first step


--------------------------------------------------------------------------------------------------------


 Maximum index for augmentation-charges          409 (set IRDMAX)


--------------------------------------------------------------------------------------------------------


 First call to EWALD:  gamma=   0.252
 Maximum number of real-space cells 4x 4x 2
 Maximum number of reciprocal cells 2x 2x 5

    FEWALD:  cpu time    0.0022: real time    0.0023


--------------------------------------- Iteration      1(   1)  ---------------------------------------


    POTLOK:  cpu time    0.1216: real time    0.1230
    SETDIJ:  cpu time    0.0024: real time    0.0025
     EDDAV:  cpu time    2.1726: real time    2.1747
       DOS:  cpu time    0.0004: real time    0.0004
    --------------------------------------------
      LOOP:  cpu time    2.2972: real time    2.3006

 eigenvalue-minimisations  :   912
 total energy-change (2. order) : 0.2139669E+03  (-0.1052536E+04)
 number of electron      30.0000000 magnetization 
 augmentation part       30.0000000 magnetization 

 Free energy of the ion-electron system (eV)
  ---------------------------------------------------
  alpha Z        PSCENC =        14.58243785
  Ewald energy   TEWEN  =      2579.36867383
  -Hartree energ DENC   =     -3341.51811835
  -exchange      EXHF   =         0.00000000
  -V(xc)+E(xc)   XCENC  =        90.82341893
  PAW double counting   =       738.13200929     -739.83780425
  entropy T*S    EENTRO =        -0.00448709
  eigenvalues    EBANDS =      -152.78317701
  atomic energy  EATOM  =      1025.20389953
  Solvation  Ediel_sol  =         0.00000000
  ---------------------------------------------------
  free energy    TOTEN  =       213.96685272 eV

  energy without entropy =      213.97133981  energy(sigma->0) =      213.96909627


--------------------------------------------------------------------------------------------------------




--------------------------------------- Iteration      1(   2)  ---------------------------------------


     EDDAV:  cpu time    2.9155: real time    2.9240
       DOS:  cpu time    0.0004: real time    0.0004
    --------------------------------------------
      LOOP:  cpu time    2.9158: real time    2.9244

 eigenvalue-minimisations  :  1344
 total energy-change (2. order) :-0.2550472E+03  (-0.2392542E+03)
 number of electron      30.0000000 magnetization 
 augmentation part       30.0000000 magnetization 

 Free energy of the ion-electron system (eV)
  ---------------------------------------------------
  alpha Z        PSCENC =        14.58243785
  Ewald energy   TEWEN  =      2579.36867383
  -Hartree energ DENC   =     -3341.51811835
  -exchange      EXHF   =         0.00000000
  -V(xc)+E(xc)   XCENC  =        90.82341893
  PAW double counting   =       738.13200929     -739.83780425
  entropy T*S    EENTRO =        -0.01087406
  eigenvalues    EBANDS =      -407.82399321
  atomic energy  EATOM  =      1025.20389953
  Solvation  Ediel_sol  =         0.00000000
  ---------------------------------------------------
  free energy    TOTEN  =       -41.08035044 eV

  energy without entropy =      -41.06947639  energy(sigma->0) =      -41.07491341


--------------------------------------------------------------------------------------------------------




--------------------------------------- Iteration      1(   3)  ---------------------------------------


     EDDAV:  cpu time    2.7096: real time    2.7119
       DOS:  cpu time    0.0003: real time    0.0003
    --------------------------------------------
      LOOP:  cpu time    2.7098: real time    2.7122

 eigenvalue-minimisations  :  1236
 total energy-change (2. order) :-0.3038252E+02  (-0.3013620E+02)
 number of electron      30.0000000 magnetization 
 augmentation part       30.0000000 magnetization 

 Free energy of the ion-electron system (eV)
  ---------------------------------------------------
  alpha Z        PSCENC =        14.58243785
  Ewald energy   TEWEN  =      2579.36867383
  -Hartree energ DENC   =     -3341.51811835
  -exchange      EXHF   =         0.00000000
  -V(xc)+E(xc)   XCENC  =        90.82341893
  PAW double counting   =       738.13200929     -739.83780425
  entropy T*S    EENTRO =        -0.00000000
  eigenvalues    EBANDS =      -438.21739114
  atomic energy  EATOM  =      1025.20389953
  Solvation  Ediel_sol  =         0.00000000
  ---------------------------------------------------
  free energy    TOTEN  =       -71.46287432 eV

  energy without entropy =      -71.46287432  energy(sigma->0) =      -71.46287432


--------------------------------------------------------------------------------------------------------




--------------------------------------- Iteration      1(   4)  ---------------------------------------


     EDDAV:  cpu time    2.6993: real time    2.7029
       DOS:  cpu time    0.0003: real time    0.0002
    --------------------------------------------
      LOOP:  cpu time    2.6996: real time    2.7032

 eigenvalue-minimisations  :  1236
 total energy-change (2. order) :-0.6537135E+00  (-0.6522815E+00)
 number of electron      30.0000000 magnetization 
 augmentation part       30.0000000 magnetization 

 Free energy of the ion-electron system (eV)
  ---------------------------------------------------
  alpha Z        PSCENC =        14.58243785
  Ewald energy   TEWEN  =      2579.36867383
  -Hartree energ DENC   =     -3341.51811835
  -exchange      EXHF   =         0.00000000
  -V(xc)+E(xc)   XCENC  =        90.82341893
  PAW double counting   =       738.13200929     -739.83780425
  entropy T*S    EENTRO =        -0.00000000
  eigenvalues    EBANDS =      -438.87110463
  atomic energy  EATOM  =      1025.20389953
  Solvation  Ediel_sol  =         0.00000000
  ---------------------------------------------------
  free energy    TOTEN  =       -72.11658781 eV

  energy without entropy =      -72.11658780  energy(sigma->0) =      -72.11658780


--------------------------------------------------------------------------------------------------------




--------------------------------------- Iteration      1(   5)  ---------------------------------------


     EDDAV:  cpu time    2.7606: real time    2.7630
       DOS:  cpu time    0.0003: real time    0.0003
    CHARGE:  cpu time    0.1920: real time    0.1922
    MIXING:  cpu time    0.0029: real time    0.0029
    --------------------------------------------
      LOOP:  cpu time    2.9558: real time    2.9584

 eigenvalue-minimisations  :  1272
 total energy-change (2. order) :-0.2174916E-01  (-0.2169567E-01)
 number of electron      30.0000012 magnetization 
 augmentation part        0.5422198 magnetization 

 Broyden mixing:
  rms(total) = 0.12811E+01    rms(broyden)= 0.12808E+01
  rms(prec ) = 0.14533E+01
  weight for this iteration     100.00

 Free energy of the ion-electron system (eV)
  ---------------------------------------------------
  alpha Z        PSCENC =        14.58243785
  Ewald energy   TEWEN  =      2579.36867383
  -Hartree energ DENC   =     -3341.51811835
  -exchange      EXHF   =         0.00000000
  -V(xc)+E(xc)   XCENC  =        90.82341893
  PAW double counting   =       738.13200929     -739.83780425
  entropy T*S    EENTRO =        -0.00000000
  eigenvalues    EBANDS =      -438.89285379
  atomic energy  EATOM  =      1025.20389953
  Solvation  Ediel_sol  =         0.00000000
  ---------------------------------------------------
  free energy    TOTEN  =       -72.13833697 eV

  energy without entropy =      -72.13833696  energy(sigma->0) =      -72.13833696


--------------------------------------------------------------------------------------------------------




--------------------------------------- Iteration      1(   6)  ---------------------------------------


    POTLOK:  cpu time    0.1072: real time    0.1076
    SETDIJ:  cpu time    0.0024: real time    0.0024
     EDDAV:  cpu time    2.6435: real time    2.6456
       DOS:  cpu time    0.0003: real time    0.0003
    CHARGE:  cpu time    0.1857: real time    0.1858
    MIXING:  cpu time    0.0029: real time    0.0029
    --------------------------------------------
      LOOP:  cpu time    2.9419: real time    2.9445

 eigenvalue-minimisations  :  1200
 total energy-change (2. order) : 0.4062294E+01  (-0.3436174E+00)
 number of electron      30.0000012 magnetization 
 augmentation part        0.5098078 magnetization 

 Broyden mixing:
  rms(total) = 0.73526E+00    rms(broyden)= 0.73521E+00
  rms(prec ) = 0.82887E+00
  weight for this iteration     100.00

 eigenvalues of (default mixing * dielectric matrix)
  average eigenvalue GAMMA=   2.1885
  2.1885

 Free energy of the ion-electron system (eV)
  ---------------------------------------------------
  alpha Z        PSCENC =        14.58243785
  Ewald energy   TEWEN  =      2579.36867383
  -Hartree energ DENC   =     -3383.42529636
  -exchange      EXHF   =         0.00000000
  -V(xc)+E(xc)   XCENC  =        92.64846185
  PAW double counting   =      1359.53154962    -1361.76569622
  entropy T*S    EENTRO =        -0.00000001
  eigenvalues    EBANDS =      -394.22007349
  atomic energy  EATOM  =      1025.20389953
  Solvation  Ediel_sol  =         0.00000000
  ---------------------------------------------------
  free energy    TOTEN  =       -68.07604341 eV

  energy without entropy =      -68.07604339  energy(sigma->0) =      -68.07604340


--------------------------------------------------------------------------------------------------------




--------------------------------------- Iteration      1(   7)  ---------------------------------------


    POTLOK:  cpu time    0.1076: real time    0.1078
    SETDIJ:  cpu time    0.0022: real time    0.0022
     EDDAV:  cpu time    2.8810: real time    2.8833
       DOS:  cpu time    0.0004: real time    0.0004
    CHARGE:  cpu time    0.1893: real time    0.1893
    MIXING:  cpu time    0.0029: real time    0.0029
    --------------------------------------------
      LOOP:  cpu time    3.1833: real time    3.1858

 eigenvalue-minimisations  :  1344
 total energy-change (2. order) : 0.1727803E+01  (-0.4841235E+00)
 number of electron      30.0000011 magnetization 
 augmentation part        0.4725944 magnetization 

 Broyden mixing:
  rms(total) = 0.16520E+00    rms(broyden)= 0.16508E+00
  rms(prec ) = 0.18483E+00
  weight for this iteration     100.00

 eigenvalues of (default mixing * dielectric matrix)
  average eigenvalue GAMMA=   2.1962
  2.1275  2.2649

 Free energy of the ion-electron system (eV)
  ---------------------------------------------------
  alpha Z        PSCENC =        14.58243785
  Ewald energy   TEWEN  =      2579.36867383
  -Hartree energ DENC   =     -3441.10088487
  -exchange      EXHF   =         0.00000000
  -V(xc)+E(xc)   XCENC  =        95.16893634
  PAW double counting   =      2576.46118250    -2579.16923824
  entropy T*S    EENTRO =        -0.00004595
  eigenvalues    EBANDS =      -336.86320152
  atomic energy  EATOM  =      1025.20389953
  Solvation  Ediel_sol  =         0.00000000
  ---------------------------------------------------
  free energy    TOTEN  =       -66.34824054 eV

  energy without entropy =      -66.34819459  energy(sigma->0) =      -66.34821756


--------------------------------------------------------------------------------------------------------




--------------------------------------- Iteration      1(   8)  ---------------------------------------


    POTLOK:  cpu time    0.1083: real time    0.1086
    SETDIJ:  cpu time    0.0021: real time    0.0021
     EDDAV:  cpu time    2.8712: real time    2.8734
       DOS:  cpu time    0.0003: real time    0.0003
    CHARGE:  cpu time    0.1871: real time    0.1872
    MIXING:  cpu time    0.0030: real time    0.0030
    --------------------------------------------
      LOOP:  cpu time    3.1720: real time    3.1746

 eigenvalue-minimisations  :  1344
 total energy-change (2. order) : 0.3660341E-01  (-0.1354749E-01)
 number of electron      30.0000011 magnetization 
 augmentation part        0.4694840 magnetization 

 Broyden mixing:
  rms(total) = 0.24327E-01    rms(broyden)= 0.24305E-01
  rms(prec ) = 0.53676E-01
  weight for this iteration     100.00

 eigenvalues of (default mixing * dielectric matrix)
  average eigenvalue GAMMA=   1.8535
  1.0546  2.2529  2.2529

 Free energy of the ion-electron system (eV)
  ---------------------------------------------------
  alpha Z        PSCENC =        14.58243785
  Ewald energy   TEWEN  =      2579.36867383
  -Hartree energ DENC   =     -3450.60893272
  -exchange      EXHF   =         0.00000000
  -V(xc)+E(xc)   XCENC  =        95.27632887
  PAW double counting   =      2846.15634535    -2848.69591693
  entropy T*S    EENTRO =        -0.00004798
  eigenvalues    EBANDS =      -327.59442492
  atomic energy  EATOM  =      1025.20389953
  Solvation  Ediel_sol  =         0.00000000
  ---------------------------------------------------
  free energy    TOTEN  =       -66.31163713 eV

  energy without entropy =      -66.31158915  energy(sigma->0) =      -66.31161314


--------------------------------------------------------------------------------------------------------




--------------------------------------- Iteration      1(   9)  ---------------------------------------


    POTLOK:  cpu time    0.1091: real time    0.1093
    SETDIJ:  cpu time    0.0022: real time    0.0022
     EDDAV:  cpu time    2.6047: real time    2.6069
       DOS:  cpu time    0.0004: real time    0.0004
    CHARGE:  cpu time    0.1981: real time    0.1982
    MIXING:  cpu time    0.0030: real time    0.0030
    --------------------------------------------
      LOOP:  cpu time    2.9176: real time    2.9200

 eigenvalue-minimisations  :  1176
 total energy-change (2. order) : 0.9606760E-02  (-0.6545450E-03)
 number of electron      30.0000011 magnetization 
 augmentation part        0.4686778 magnetization 

 Broyden mixing:
  rms(total) = 0.16271E-01    rms(broyden)= 0.16269E-01
  rms(prec ) = 0.40414E-01
  weight for this iteration     100.00

 eigenvalues of (default mixing * dielectric matrix)
  average eigenvalue GAMMA=   1.9684
  1.0878  2.4836  2.4836  1.8187

 Free energy of the ion-electron system (eV)
  ---------------------------------------------------
  alpha Z        PSCENC =        14.58243785
  Ewald energy   TEWEN  =      2579.36867383
  -Hartree energ DENC   =     -3455.23066137
  -exchange      EXHF   =         0.00000000
  -V(xc)+E(xc)   XCENC  =        95.35196302
  PAW double counting   =      2870.93413289    -2873.45663154
  entropy T*S    EENTRO =        -0.00006820
  eigenvalues    EBANDS =      -323.05577638
  atomic energy  EATOM  =      1025.20389953
  Solvation  Ediel_sol  =         0.00000000
  ---------------------------------------------------
  free energy    TOTEN  =       -66.30203037 eV

  energy without entropy =      -66.30196217  energy(sigma->0) =      -66.30199627


--------------------------------------------------------------------------------------------------------




--------------------------------------- Iteration      1(  10)  ---------------------------------------


    POTLOK:  cpu time    0.1128: real time    0.1129
    SETDIJ:  cpu time    0.0022: real time    0.0022
     EDDAV:  cpu time    2.4134: real time    2.4153
       DOS:  cpu time    0.0004: real time    0.0004
    CHARGE:  cpu time    0.1885: real time    0.1886
    MIXING:  cpu time    0.0032: real time    0.0032
    --------------------------------------------
      LOOP:  cpu time    2.7203: real time    2.7225

 eigenvalue-minimisations  :  1068
 total energy-change (2. order) : 0.8436705E-02  (-0.9566476E-03)
 number of electron      30.0000011 magnetization 
 augmentation part        0.4676197 magnetization 

 Broyden mixing:
  rms(total) = 0.75675E-02    rms(broyden)= 0.75612E-02
  rms(prec ) = 0.19601E-01
  weight for this iteration     100.00

 eigenvalues of (default mixing * dielectric matrix)
  average eigenvalue GAMMA=   2.0791
  3.5295  1.0255  2.3137  1.9950  1.5318

 Free energy of the ion-electron system (eV)
  ---------------------------------------------------
  alpha Z        PSCENC =        14.58243785
  Ewald energy   TEWEN  =      2579.36867383
  -Hartree energ DENC   =     -3464.45253142
  -exchange      EXHF   =         0.00000000
  -V(xc)+E(xc)   XCENC  =        95.47322571
  PAW double counting   =      2845.83188832    -2848.34684243
  entropy T*S    EENTRO =        -0.00011034
  eigenvalues    EBANDS =      -313.95423470
  atomic energy  EATOM  =      1025.20389953
  Solvation  Ediel_sol  =         0.00000000
  ---------------------------------------------------
  free energy    TOTEN  =       -66.29359367 eV

  energy without entropy =      -66.29348332  energy(sigma->0) =      -66.29353850


--------------------------------------------------------------------------------------------------------




--------------------------------------- Iteration      1(  11)  ---------------------------------------


    POTLOK:  cpu time    0.1117: real time    0.1122
    SETDIJ:  cpu time    0.0022: real time    0.0022
     EDDAV:  cpu time    2.2927: real time    2.2952
       DOS:  cpu time    0.0004: real time    0.0004
    CHARGE:  cpu time    0.1946: real time    0.1949
    MIXING:  cpu time    0.0031: real time    0.0031
    --------------------------------------------
      LOOP:  cpu time    2.6046: real time    2.6079

 eigenvalue-minimisations  :   996
 total energy-change (2. order) : 0.1732096E-02  (-0.3182774E-03)
 number of electron      30.0000011 magnetization 
 augmentation part        0.4670826 magnetization 

 Broyden mixing:
  rms(total) = 0.57841E-02    rms(broyden)= 0.57811E-02
  rms(prec ) = 0.11810E-01
  weight for this iteration     100.00

 eigenvalues of (default mixing * dielectric matrix)
  average eigenvalue GAMMA=   2.2452
  4.6787  2.4139  2.4139  1.8489  0.9401  1.1761

 Free energy of the ion-electron system (eV)
  ---------------------------------------------------
  alpha Z        PSCENC =        14.58243785
  Ewald energy   TEWEN  =      2579.36867383
  -Hartree energ DENC   =     -3469.56607929
  -exchange      EXHF   =         0.00000000
  -V(xc)+E(xc)   XCENC  =        95.53104152
  PAW double counting   =      2853.04175355    -2855.55354847
  entropy T*S    EENTRO =        -0.00013669
  eigenvalues    EBANDS =      -308.89990340
  atomic energy  EATOM  =      1025.20389953
  Solvation  Ediel_sol  =         0.00000000
  ---------------------------------------------------
  free energy    TOTEN  =       -66.29186157 eV

  energy without entropy =      -66.29172488  energy(sigma->0) =      -66.29179323


--------------------------------------------------------------------------------------------------------




--------------------------------------- Iteration      1(  12)  ---------------------------------------


    POTLOK:  cpu time    0.1075: real time    0.1084
    SETDIJ:  cpu time    0.0022: real time    0.0022
     EDDAV:  cpu time    2.1858: real time    2.1877
       DOS:  cpu time    0.0004: real time    0.0004
    CHARGE:  cpu time    0.1953: real time    0.1954
    MIXING:  cpu time    0.0033: real time    0.0033
    --------------------------------------------
      LOOP:  cpu time    2.4944: real time    2.4973

 eigenvalue-minimisations  :   936
 total energy-change (2. order) :-0.3468192E-03  (-0.6070940E-04)
 number of electron      30.0000011 magnetization 
 augmentation part        0.4669466 magnetization 

 Broyden mixing:
  rms(total) = 0.32964E-02    rms(broyden)= 0.32957E-02
  rms(prec ) = 0.65073E-02
  weight for this iteration     100.00

 eigenvalues of (default mixing * dielectric matrix)
  average eigenvalue GAMMA=   2.2710
  5.4989  2.8180  2.2438  2.0846  1.3444  1.0254  0.8822

 Free energy of the ion-electron system (eV)
  ---------------------------------------------------
  alpha Z        PSCENC =        14.58243785
  Ewald energy   TEWEN  =      2579.36867383
  -Hartree energ DENC   =     -3471.85367813
  -exchange      EXHF   =         0.00000000
  -V(xc)+E(xc)   XCENC  =        95.53154533
  PAW double counting   =      2841.71902648    -2844.23510999
  entropy T*S    EENTRO =        -0.00014107
  eigenvalues    EBANDS =      -306.60886222
  atomic energy  EATOM  =      1025.20389953
  Solvation  Ediel_sol  =         0.00000000
  ---------------------------------------------------
  free energy    TOTEN  =       -66.29220839 eV

  energy without entropy =      -66.29206732  energy(sigma->0) =      -66.29213785


--------------------------------------------------------------------------------------------------------




--------------------------------------- Iteration      1(  13)  ---------------------------------------


    POTLOK:  cpu time    0.1064: real time    0.1066
    SETDIJ:  cpu time    0.0021: real time    0.0021
     EDDAV:  cpu time    2.5111: real time    2.5132
       DOS:  cpu time    0.0004: real time    0.0004
    CHARGE:  cpu time    0.1923: real time    0.1925
    MIXING:  cpu time    0.0033: real time    0.0033
    --------------------------------------------
      LOOP:  cpu time    2.8157: real time    2.8181

 eigenvalue-minimisations  :  1128
 total energy-change (2. order) :-0.1973591E-02  (-0.2351248E-04)
 number of electron      30.0000011 magnetization 
 augmentation part        0.4669757 magnetization 

 Broyden mixing:
  rms(total) = 0.21246E-02    rms(broyden)= 0.21245E-02
  rms(prec ) = 0.43820E-02
  weight for this iteration     100.00

 eigenvalues of (default mixing * dielectric matrix)
  average eigenvalue GAMMA=   2.4621
  6.1827  3.7019  2.5636  2.1105  1.8239  1.3697  1.0085  0.9362

 Free energy of the ion-electron system (eV)
  ---------------------------------------------------
  alpha Z        PSCENC =        14.58243785
  Ewald energy   TEWEN  =      2579.36867383
  -Hartree energ DENC   =     -3472.16514800
  -exchange      EXHF   =         0.00000000
  -V(xc)+E(xc)   XCENC  =        95.52069497
  PAW double counting   =      2844.14940885    -2846.66340447
  entropy T*S    EENTRO =        -0.00013594
  eigenvalues    EBANDS =      -306.29060860
  atomic energy  EATOM  =      1025.20389953
  Solvation  Ediel_sol  =         0.00000000
  ---------------------------------------------------
  free energy    TOTEN  =       -66.29418198 eV

  energy without entropy =      -66.29404604  energy(sigma->0) =      -66.29411401


--------------------------------------------------------------------------------------------------------




--------------------------------------- Iteration      1(  14)  ---------------------------------------


    POTLOK:  cpu time    0.1048: real time    0.1049
    SETDIJ:  cpu time    0.0021: real time    0.0021
     EDDAV:  cpu time    2.2677: real time    2.2694
       DOS:  cpu time    0.0004: real time    0.0004
    CHARGE:  cpu time    0.1911: real time    0.1912
    MIXING:  cpu time    0.0034: real time    0.0034
    --------------------------------------------
      LOOP:  cpu time    2.5694: real time    2.5714

 eigenvalue-minimisations  :   984
 total energy-change (2. order) :-0.2476230E-02  (-0.4746177E-04)
 number of electron      30.0000011 magnetization 
 augmentation part        0.4669874 magnetization 

 Broyden mixing:
  rms(total) = 0.17406E-02    rms(broyden)= 0.17406E-02
  rms(prec ) = 0.22460E-02
  weight for this iteration     100.00

 eigenvalues of (default mixing * dielectric matrix)
  average eigenvalue GAMMA=   2.5856
  7.1087  4.5298  2.5666  2.5666  2.0486  0.9716  1.0337  1.2224  1.2224

 Free energy of the ion-electron system (eV)
  ---------------------------------------------------
  alpha Z        PSCENC =        14.58243785
  Ewald energy   TEWEN  =      2579.36867383
  -Hartree energ DENC   =     -3472.81245523
  -exchange      EXHF   =         0.00000000
  -V(xc)+E(xc)   XCENC  =        95.51703771
  PAW double counting   =      2850.21466053    -2852.72743180
  entropy T*S    EENTRO =        -0.00013389
  eigenvalues    EBANDS =      -305.64334673
  atomic energy  EATOM  =      1025.20389953
  Solvation  Ediel_sol  =         0.00000000
  ---------------------------------------------------
  free energy    TOTEN  =       -66.29665821 eV

  energy without entropy =      -66.29652432  energy(sigma->0) =      -66.29659126


--------------------------------------------------------------------------------------------------------




--------------------------------------- Iteration      1(  15)  ---------------------------------------


    POTLOK:  cpu time    0.1046: real time    0.1047
    SETDIJ:  cpu time    0.0022: real time    0.0022
     EDDAV:  cpu time    2.4710: real time    2.4743
       DOS:  cpu time    0.0004: real time    0.0004
    CHARGE:  cpu time    0.1866: real time    0.1867
    MIXING:  cpu time    0.0039: real time    0.0039
    --------------------------------------------
      LOOP:  cpu time    2.7685: real time    2.7721

 eigenvalue-minimisations  :  1104
 total energy-change (2. order) :-0.5793983E-03  (-0.6168375E-05)
 number of electron      30.0000011 magnetization 
 augmentation part        0.4669246 magnetization 

 Broyden mixing:
  rms(total) = 0.93548E-03    rms(broyden)= 0.93536E-03
  rms(prec ) = 0.11384E-02
  weight for this iteration     100.00

 eigenvalues of (default mixing * dielectric matrix)
  average eigenvalue GAMMA=   2.8484
  8.8072  5.0962  3.4010  2.4683  2.3575  2.0926  1.2252  1.0158  1.0100  1.0100

 Free energy of the ion-electron system (eV)
  ---------------------------------------------------
  alpha Z        PSCENC =        14.58243785
  Ewald energy   TEWEN  =      2579.36867383
  -Hartree energ DENC   =     -3473.10387852
  -exchange      EXHF   =         0.00000000
  -V(xc)+E(xc)   XCENC  =        95.52019735
  PAW double counting   =      2845.82074697    -2848.33465487
  entropy T*S    EENTRO =        -0.00013605
  eigenvalues    EBANDS =      -305.35452368
  atomic energy  EATOM  =      1025.20389953
  Solvation  Ediel_sol  =         0.00000000
  ---------------------------------------------------
  free energy    TOTEN  =       -66.29723761 eV

  energy without entropy =      -66.29710156  energy(sigma->0) =      -66.29716958


--------------------------------------------------------------------------------------------------------




--------------------------------------- Iteration      1(  16)  ---------------------------------------


    POTLOK:  cpu time    0.1060: real time    0.1062
    SETDIJ:  cpu time    0.0022: real time    0.0022
     EDDAV:  cpu time    2.2161: real time    2.2178
       DOS:  cpu time    0.0004: real time    0.0004
    CHARGE:  cpu time    0.1918: real time    0.1919
    MIXING:  cpu time    0.0038: real time    0.0038
    --------------------------------------------
      LOOP:  cpu time    2.5202: real time    2.5222

 eigenvalue-minimisations  :   948
 total energy-change (2. order) :-0.2930194E-03  (-0.2542255E-05)
 number of electron      30.0000011 magnetization 
 augmentation part        0.4669335 magnetization 

 Broyden mixing:
  rms(total) = 0.18350E-03    rms(broyden)= 0.18340E-03
  rms(prec ) = 0.23110E-03
  weight for this iteration     100.00

 eigenvalues of (default mixing * dielectric matrix)
  average eigenvalue GAMMA=   2.8041
  9.0459  5.7343  3.2667  2.6159  2.4777  2.0380  1.4279  1.2165  0.9931  0.9931
  1.0356

 Free energy of the ion-electron system (eV)
  ---------------------------------------------------
  alpha Z        PSCENC =        14.58243785
  Ewald energy   TEWEN  =      2579.36867383
  -Hartree energ DENC   =     -3473.15273290
  -exchange      EXHF   =         0.00000000
  -V(xc)+E(xc)   XCENC  =        95.51973048
  PAW double counting   =      2846.53285712    -2849.04613673
  entropy T*S    EENTRO =        -0.00013567
  eigenvalues    EBANDS =      -305.30612413
  atomic energy  EATOM  =      1025.20389953
  Solvation  Ediel_sol  =         0.00000000
  ---------------------------------------------------
  free energy    TOTEN  =       -66.29753063 eV

  energy without entropy =      -66.29739496  energy(sigma->0) =      -66.29746279


--------------------------------------------------------------------------------------------------------




--------------------------------------- Iteration      1(  17)  ---------------------------------------


    POTLOK:  cpu time    0.1061: real time    0.1063
    SETDIJ:  cpu time    0.0022: real time    0.0022
     EDDAV:  cpu time    2.4803: real time    2.4821
       DOS:  cpu time    0.0004: real time    0.0004
    CHARGE:  cpu time    0.1895: real time    0.1896
    MIXING:  cpu time    0.0037: real time    0.0037
    --------------------------------------------
      LOOP:  cpu time    2.7821: real time    2.7843

 eigenvalue-minimisations  :  1104
 total energy-change (2. order) :-0.2524580E-04  (-0.1144992E-06)
 number of electron      30.0000011 magnetization 
 augmentation part        0.4669292 magnetization 

 Broyden mixing:
  rms(total) = 0.10864E-03    rms(broyden)= 0.10863E-03
  rms(prec ) = 0.12663E-03
  weight for this iteration     100.00

 eigenvalues of (default mixing * dielectric matrix)
  average eigenvalue GAMMA=   2.8477
  9.5800  5.9384  3.5152  3.0839  2.4877  2.2891  2.0879  1.2517  0.9975  0.9975
  1.0015  0.9416

 Free energy of the ion-electron system (eV)
  ---------------------------------------------------
  alpha Z        PSCENC =        14.58243785
  Ewald energy   TEWEN  =      2579.36867383
  -Hartree energ DENC   =     -3473.12412162
  -exchange      EXHF   =         0.00000000
  -V(xc)+E(xc)   XCENC  =        95.51936026
  PAW double counting   =      2846.56345020    -2849.07696577
  entropy T*S    EENTRO =        -0.00013575
  eigenvalues    EBANDS =      -305.33415439
  atomic energy  EATOM  =      1025.20389953
  Solvation  Ediel_sol  =         0.00000000
  ---------------------------------------------------
  free energy    TOTEN  =       -66.29755587 eV

  energy without entropy =      -66.29742012  energy(sigma->0) =      -66.29748800


--------------------------------------------------------------------------------------------------------




--------------------------------------- Iteration      1(  18)  ---------------------------------------


    POTLOK:  cpu time    0.1066: real time    0.1068
    SETDIJ:  cpu time    0.0021: real time    0.0021
     EDDAV:  cpu time    1.8529: real time    1.8544
       DOS:  cpu time    0.0004: real time    0.0004
    CHARGE:  cpu time    0.1956: real time    0.1957
    MIXING:  cpu time    0.0039: real time    0.0039
    --------------------------------------------
      LOOP:  cpu time    2.1615: real time    2.1632

 eigenvalue-minimisations  :   720
 total energy-change (2. order) :-0.1323428E-04  (-0.3862965E-07)
 number of electron      30.0000011 magnetization 
 augmentation part        0.4669293 magnetization 

 Broyden mixing:
  rms(total) = 0.21767E-04    rms(broyden)= 0.21765E-04
  rms(prec ) = 0.30539E-04
  weight for this iteration     100.00

 eigenvalues of (default mixing * dielectric matrix)
  average eigenvalue GAMMA=   2.7052
  9.5392  5.9308  3.7307  2.8755  2.4784  2.3620  2.0705  1.2640  1.0268  1.0268
  0.9854  0.9854  0.8914

 Free energy of the ion-electron system (eV)
  ---------------------------------------------------
  alpha Z        PSCENC =        14.58243785
  Ewald energy   TEWEN  =      2579.36867383
  -Hartree energ DENC   =     -3473.12287950
  -exchange      EXHF   =         0.00000000
  -V(xc)+E(xc)   XCENC  =        95.51916969
  PAW double counting   =      2846.57603937    -2849.08954654
  entropy T*S    EENTRO =        -0.00013561
  eigenvalues    EBANDS =      -305.33522773
  atomic energy  EATOM  =      1025.20389953
  Solvation  Ediel_sol  =         0.00000000
  ---------------------------------------------------
  free energy    TOTEN  =       -66.29756911 eV

  energy without entropy =      -66.29743350  energy(sigma->0) =      -66.29750130


--------------------------------------------------------------------------------------------------------




--------------------------------------- Iteration      1(  19)  ---------------------------------------


    POTLOK:  cpu time    0.1070: real time    0.1071
    SETDIJ:  cpu time    0.0022: real time    0.0022
     EDDAV:  cpu time    2.1563: real time    2.1580
       DOS:  cpu time    0.0004: real time    0.0004
    --------------------------------------------
      LOOP:  cpu time    2.2658: real time    2.2677

 eigenvalue-minimisations  :   900
 total energy-change (2. order) :-0.7252258E-06  (-0.2966693E-08)
 number of electron      30.0000011 magnetization 
 augmentation part        0.4669293 magnetization 

 Free energy of the ion-electron system (eV)
  ---------------------------------------------------
  alpha Z        PSCENC =        14.58243785
  Ewald energy   TEWEN  =      2579.36867383
  -Hartree energ DENC   =     -3473.13047836
  -exchange      EXHF   =         0.00000000
  -V(xc)+E(xc)   XCENC  =        95.51927360
  PAW double counting   =      2846.55682924    -2849.07031704
  entropy T*S    EENTRO =        -0.00013564
  eigenvalues    EBANDS =      -305.32775282
  atomic energy  EATOM  =      1025.20389953
  Solvation  Ediel_sol  =         0.00000000
  ---------------------------------------------------
  free energy    TOTEN  =       -66.29756983 eV

  energy without entropy =      -66.29743419  energy(sigma->0) =      -66.29750201


--------------------------------------------------------------------------------------------------------




 average (electrostatic) potential at core
  the test charge radii are     0.7672  0.6991
  (the norm of the test charge is              1.0000)
       1 -34.2804       2 -34.2804       3 -57.3317       4 -57.3317       5 -57.3317
       6 -57.3317       7 -57.3317       8 -57.3317
 
 
 
 E-fermi :  -3.7738     XC(G=0):  -2.7998     alpha+bet : -2.3669


 k-point     1 :       0.0000    0.0000    0.0000
  band No.  band energies     occupation 
      1     -19.4965      2.00000
      2     -15.5877      2.00000
      3     -15.5876      2.00000
      4     -13.8380      2.00000
      5     -13.8380      2.00000
      6     -12.3199      2.00000
      7     -12.1419      2.00000
      8      -8.6098      2.00000
      9      -7.9010      2.00000
     10      -6.6005      2.00000
     11      -6.6005      2.00000
     12      -4.3044      2.00000
     13      -4.3043      2.00000
     14      -3.9358      1.97804
     15      -3.9357      1.97796
     16      -2.6375      0.00000
     17      -0.6809      0.00000
     18      -0.6809      0.00000
     19       0.8369      0.00000
     20       1.0176      0.00000
     21       1.8179      0.00000
     22       2.2370      0.00000
     23       4.2066      0.00000
     24       4.2159      0.00000

 k-point     2 :       0.0833    0.0000    0.0000
  band No.  band energies     occupation 
      1     -19.4634      2.00000
      2     -15.7577      2.00000
      3     -15.6553      2.00000
      4     -13.8943      2.00000
      5     -13.7095      2.00000
      6     -12.1820      2.00000
      7     -11.9357      2.00000
      8      -8.5661      2.00000
      9      -7.9738      2.00000
     10      -6.7108      2.00000
     11      -6.6176      2.00000
     12      -4.4370      2.00000
     13      -4.3299      2.00000
     14      -4.0888      1.99999
     15      -4.0144      1.99934
     16      -2.8142      0.00000
     17      -0.6185      0.00000
     18      -0.3881      0.00000
     19       0.8883      0.00000
     20       1.1270      0.00000
     21       1.8785      0.00000
     22       2.2888      0.00000
     23       4.2671      0.00000
     24       4.2867      0.00000

 k-point     3 :       0.1667   -0.0000    0.0000
  band No.  band energies     occupation 
      1     -19.3651      2.00000
      2     -16.1624      2.00000
      3     -15.8090      2.00000
      4     -14.0338      2.00000
      5     -13.3761      2.00000
      6     -11.8238      2.00000
      7     -11.3985      2.00000
      8      -8.4352      2.00000
      9      -8.2145      2.00000
     10      -7.0217      2.00000
     11      -6.6194      2.00000
     12      -4.8148      2.00000
     13      -4.5235      2.00000
     14      -4.3964      2.00000
     15      -4.2338      2.00000
     16      -3.1060      0.00000
     17      -0.4478      0.00000
     18       0.2064      0.00000
     19       1.0420      0.00000
     20       1.4593      0.00000
     21       2.0723      0.00000
     22       2.4440      0.00000
     23       4.4207      0.00000
     24       4.4996      0.00000

 k-point     4 :       0.2500    0.0000    0.0000
  band No.  band energies     occupation 
      1     -19.2059      2.00000
      2     -16.6478      2.00000
      3     -15.9750      2.00000
      4     -14.1916      2.00000
      5     -12.9219      2.00000
      6     -11.3482      2.00000
      7     -10.6547      2.00000
      8      -8.6287      2.00000
      9      -8.2190      2.00000
     10      -7.4821      2.00000
     11      -6.5360      2.00000
     12      -5.3509      2.00000
     13      -5.1810      2.00000
     14      -4.5529      2.00000
     15      -4.4807      2.00000
     16      -3.3294      0.00000
     17      -0.2128      0.00000
     18       0.7750      0.00000
     19       1.2975      0.00000
     20       1.9657      0.00000
     21       2.4694      0.00000
     22       2.7022      0.00000
     23       4.6756      0.00000
     24       4.7827      0.00000

 k-point     5 :       0.3333    0.0000    0.0000
  band No.  band energies     occupation 
      1     -18.9967      2.00000
      2     -17.1219      2.00000
      3     -16.1109      2.00000
      4     -14.3228      2.00000
      5     -12.4148      2.00000
      6     -10.8131      2.00000
      7      -9.8018      2.00000
      8      -9.1475      2.00000
      9      -8.0230      2.00000
     10      -7.9211      2.00000
     11      -6.3564      2.00000
     12      -5.9923      2.00000
     13      -5.9365      2.00000
     14      -4.9231      2.00000
     15      -4.5590      2.00000
     16      -3.4774      0.00003
     17       0.0265      0.00000
     18       1.2082      0.00000
     19       1.6541      0.00000
     20       2.4607      0.00000
     21       3.0633      0.00000
     22       3.1783      0.00000
     23       4.0802      0.00000
     24       4.9517      0.00000

 k-point     6 :       0.4167    0.0000    0.0000
  band No.  band energies     occupation 
      1     -18.7726      2.00000
      2     -17.5146      2.00000
      3     -16.1977      2.00000
      4     -14.4069      2.00000
      5     -11.9448      2.00000
      6     -10.2758      2.00000
      7      -9.6431      2.00000
      8      -8.9945      2.00000
      9      -8.4646      2.00000
     10      -7.5529      2.00000
     11      -6.8938      2.00000
     12      -6.4957      2.00000
     13      -6.1099      2.00000
     14      -5.2917      2.00000
     15      -4.6129      2.00000
     16      -3.5634      0.00293
     17       0.2068      0.00000
     18       1.4923      0.00000
     19       2.1111      0.00000
     20       2.9530      0.00000
     21       3.3251      0.00000
     22       3.5276      0.00000
     23       3.8970      0.00000
     24       4.4156      0.00000

 k-point     7 :       0.5000    0.0000    0.0000
  band No.  band energies     occupation 
      1     -18.6525      2.00000
      2     -17.6923      2.00000
      3     -16.2274      2.00000
      4     -14.4357      2.00000
      5     -11.7205      2.00000
      6      -9.9622      2.00000
      7      -9.8790      2.00000
      8      -9.0179      2.00000
      9      -7.8659      2.00000
     10      -7.7859      2.00000
     11      -7.2461      2.00000
     12      -6.8688      2.00000
     13      -5.9250      2.00000
     14      -5.5185      2.00000
     15      -4.6321      2.00000
     16      -3.5919      0.01010
     17       0.2740      0.00000
     18       1.5943      0.00000
     19       2.6495      0.00000
     20       2.6878      0.00000
     21       3.4732      0.00000
     22       3.5292      0.00000
     23       4.0848      0.00000
     24       4.1015      0.00000

 k-point     8 :       0.0833    0.0833    0.0000
  band No.  band energies     occupation 
      1     -19.3977      2.00000
      2     -16.0151      2.00000
      3     -15.8002      2.00000
      4     -13.9229      2.00000
      5     -13.5512      2.00000
      6     -11.9040      2.00000
      7     -11.5861      2.00000
      8      -8.4788      2.00000
      9      -8.1377      2.00000
     10      -6.8769      2.00000
     11      -6.6644      2.00000
     12      -4.6571      2.00000
     13      -4.4268      2.00000
     14      -4.3744      2.00000
     15      -4.1718      2.00000
     16      -3.0075      0.00000
     17      -0.5496      0.00000
     18       0.0854      0.00000
     19       0.9909      0.00000
     20       1.3423      0.00000
     21       2.0046      0.00000
     22       2.3923      0.00000
     23       4.3695      0.00000
     24       4.4507      0.00000

 k-point     9 :       0.1667    0.0833    0.0000
  band No.  band energies     occupation 
      1     -19.2687      2.00000
      2     -16.4224      2.00000
      3     -16.0086      2.00000
      4     -13.9872      2.00000
      5     -13.2464      2.00000
      6     -11.4324      2.00000
      7     -10.9845      2.00000
      8      -8.4987      2.00000
      9      -8.3052      2.00000
     10      -7.1738      2.00000
     11      -6.6793      2.00000
     12      -5.0723      2.00000
     13      -4.9016      2.00000
     14      -4.6023      2.00000
     15      -4.4603      2.00000
     16      -3.1483      0.00000
     17      -0.4395      0.00000
     18       0.7303      0.00000
     19       1.1955      0.00000
     20       1.7483      0.00000
     21       2.2856      0.00000
     22       2.5991      0.00000
     23       4.5739      0.00000
     24       4.7371      0.00000

 k-point    10 :       0.2500    0.0833    0.0000
  band No.  band energies     occupation 
      1     -19.0834      2.00000
      2     -16.8857      2.00000
      3     -16.1858      2.00000
      4     -14.0947      2.00000
      5     -12.7996      2.00000
      6     -10.8990      2.00000
      7     -10.2050      2.00000
      8      -9.0115      2.00000
      9      -8.0478      2.00000
     10      -7.6118      2.00000
     11      -6.5677      2.00000
     12      -5.6229      2.00000
     13      -5.6167      2.00000
     14      -4.8251      2.00000
     15      -4.7563      2.00000
     16      -3.2180      0.00000
     17      -0.2853      0.00000
     18       1.2857      0.00000
     19       1.5016      0.00000
     20       2.2481      0.00000
     21       2.8200      0.00000
     22       2.9088      0.00000
     23       4.5323      0.00000
     24       4.8766      0.00000

 k-point    11 :       0.3333    0.0833    0.0000
  band No.  band energies     occupation 
      1     -18.8611      2.00000
      2     -17.3175      2.00000
      3     -16.3096      2.00000
      4     -14.1869      2.00000
      5     -12.3083      2.00000
      6     -10.3544      2.00000
      7      -9.5885      2.00000
      8      -9.3157      2.00000
      9      -8.1109      2.00000
     10      -7.7128      2.00000
     11      -6.4621      2.00000
     12      -6.3509      2.00000
     13      -6.1959      2.00000
     14      -5.2129      2.00000
     15      -4.8652      2.00000
     16      -3.2579      0.00000
     17      -0.1294      0.00000
     18       1.6763      0.00000
     19       1.9086      0.00000
     20       2.7350      0.00000
     21       3.3211      0.00000
     22       3.5956      0.00000
     23       3.7298      0.00000
     24       4.6637      0.00000

 k-point    12 :       0.4167    0.0833    0.0000
  band No.  band energies     occupation 
      1     -18.6681      2.00000
      2     -17.6208      2.00000
      3     -16.3729      2.00000
      4     -14.2375      2.00000
      5     -11.9219      2.00000
      6     -10.0376      2.00000
      7      -9.8546      2.00000
      8      -8.7477      2.00000
      9      -8.2257      2.00000
     10      -7.3647      2.00000
     11      -7.3307      2.00000
     12      -6.7068      2.00000
     13      -6.1032      2.00000
     14      -5.5538      2.00000
     15      -4.9214      2.00000
     16      -3.2786      0.00000
     17      -0.0310      0.00000
     18       1.8868      0.00000
     19       2.4156      0.00000
     20       3.0238      0.00000
     21       3.2549      0.00000
     22       3.8135      0.00000
     23       3.8365      0.00000
     24       4.4537      0.00000

 k-point    13 :       0.1667    0.1667    0.0000
  band No.  band energies     occupation 
      1     -19.1130      2.00000
      2     -16.7302      2.00000
      3     -16.3145      2.00000
      4     -13.8230      2.00000
      5     -13.1270      2.00000
      6     -10.8186      2.00000
      7     -10.4214      2.00000
      8      -8.9955      2.00000
      9      -8.0903      2.00000
     10      -7.2590      2.00000
     11      -6.8203      2.00000
     12      -5.4522      2.00000
     13      -5.3850      2.00000
     14      -5.0038      2.00000
     15      -4.8295      2.00000
     16      -3.0203      0.00000
     17      -0.5088      0.00000
     18       1.4400      0.00000
     19       1.4509      0.00000
     20       2.1263      0.00000
     21       2.6737      0.00000
     22       2.8574      0.00000
     23       4.8278      0.00000
     24       5.0775      0.00000

 k-point    14 :       0.2500    0.1667    0.0000
  band No.  band energies     occupation 
      1     -18.9101      2.00000
      2     -17.0956      2.00000
      3     -16.5454      2.00000
      4     -13.7707      2.00000
      5     -12.8044      2.00000
      6     -10.2185      2.00000
      7      -9.7107      2.00000
      8      -9.5476      2.00000
      9      -7.7947      2.00000
     10      -7.5371      2.00000
     11      -6.7711      2.00000
     12      -6.1498      2.00000
     13      -5.8546      2.00000
     14      -5.2774      2.00000
     15      -5.2606      2.00000
     16      -2.8651      0.00000
     17      -0.5504      0.00000
     18       1.8076      0.00000
     19       2.0359      0.00000
     20       2.5799      0.00000
     21       3.2187      0.00000
     22       3.2694      0.00000
     23       4.2347      0.00000
     24       4.8388      0.00000

 k-point    15 :       0.3333    0.1667    0.0000
  band No.  band energies     occupation 
      1     -18.6964      2.00000
      2     -17.4382      2.00000
      3     -16.6711      2.00000
      4     -13.7908      2.00000
      5     -12.3880      2.00000
      6     -10.2044      2.00000
      7      -9.6107      2.00000
      8      -8.8392      2.00000
      9      -7.9390      2.00000
     10      -7.4311      2.00000
     11      -6.9708      2.00000
     12      -6.5345      2.00000
     13      -6.3820      2.00000
     14      -5.6764      2.00000
     15      -5.4064      2.00000
     16      -2.7599      0.00000
     17      -0.5567      0.00000
     18       2.2649      0.00000
     19       2.3963      0.00000
     20       3.0894      0.00000
     21       3.4794      0.00000
     22       3.6832      0.00000
     23       3.9495      0.00000
     24       4.4771      0.00000

 k-point    16 :       0.4167    0.1667    0.0000
  band No.  band energies     occupation 
      1     -18.5849      2.00000
      2     -17.5970      2.00000
      3     -16.7111      2.00000
      4     -13.8039      2.00000
      5     -12.1678      2.00000
      6     -10.4497      2.00000
      7      -9.3498      2.00000
      8      -8.3646      2.00000
      9      -7.8776      2.00000
     10      -7.7350      2.00000
     11      -7.1341      2.00000
     12      -6.7398      2.00000
     13      -6.3499      2.00000
     14      -5.9256      2.00000
     15      -5.4464      2.00000
     16      -2.7244      0.00000
     17      -0.5537      0.00000
     18       2.5206      0.00000
     19       2.8057      0.00000
     20       2.8396      0.00000
     21       3.6074      0.00000
     22       3.6763      0.00000
     23       4.2427      0.00000
     24       4.2560      0.00000

 k-point    17 :       0.2500    0.2500    0.0000
  band No.  band energies     occupation 
      1     -18.7093      2.00000
      2     -17.2867      2.00000
      3     -16.8701      2.00000
      4     -13.4461      2.00000
      5     -12.7451      2.00000
      6     -10.2612      2.00000
[...]
     13      -6.0005      2.00000
     14      -4.7364      2.00000
     15      -4.5846      2.00000
     16      -2.9566      0.00000
     17       0.8043      0.00000
     18       1.6265      0.00000
     19       2.2628      0.00000
     20       3.2132      0.00000
     21       3.4791      0.00000
     22       3.8629      0.00000
     23       4.1877      0.00000
     24       4.5807      0.00000

 k-point     7 :       0.5000    0.0000    0.0000
  band No.  band energies     occupation 
      1     -19.1601      2.00000
      2     -17.4548      2.00000
      3     -16.3006      2.00000
      4     -14.0238      2.00000
      5     -11.7001      2.00000
      6      -9.8497      2.00000
      7      -9.6346      2.00000
      8      -9.0350      2.00000
      9      -7.4433      2.00000
     10      -7.3996      2.00000
     11      -7.1414      2.00000
     12      -6.4797      2.00000
     13      -5.9385      2.00000
     14      -4.8481      2.00000
     15      -4.6010      2.00000
     16      -2.9949      0.00000
     17       0.8725      0.00000
     18       1.7220      0.00000
     19       2.8194      0.00000
     20       2.8236      0.00000
     21       3.7260      0.00000
     22       3.7861      0.00000
     23       4.4243      0.00000
     24       4.4307      0.00000

 k-point     8 :       0.0833    0.0833    0.0000
  band No.  band energies     occupation 
      1     -19.6504      2.00000
      2     -16.1767      2.00000
      3     -15.9628      2.00000
      4     -13.5459      2.00000
      5     -13.2544      2.00000
      6     -12.0097      2.00000
      7     -10.6291      2.00000
      8      -8.4861      2.00000
      9      -8.4074      2.00000
     10      -6.4777      2.00000
     11      -6.2181      2.00000
     12      -4.6650      2.00000
     13      -4.4119      2.00000
     14      -4.0433      2.00000
     15      -3.8434      2.00000
     16      -2.2459      0.00000
     17       0.0234      0.00000
     18       0.7542      0.00000
     19       0.9522      0.00000
     20       1.1372      0.00000
     21       2.2358      0.00000
     22       2.7278      0.00000
     23       5.1123      0.00000
     24       5.5707      0.00000

 k-point     9 :       0.1667    0.0833    0.0000
  band No.  band energies     occupation 
      1     -19.5492      2.00000
      2     -16.5125      2.00000
      3     -16.1064      2.00000
      4     -13.6159      2.00000
      5     -13.0018      2.00000
      6     -11.5164      2.00000
      7     -10.1216      2.00000
      8      -8.7484      2.00000
      9      -8.2462      2.00000
     10      -6.8488      2.00000
     11      -6.2758      2.00000
     12      -5.0428      2.00000
     13      -4.5344      2.00000
     14      -4.5334      2.00000
     15      -4.0986      2.00000
     16      -2.4738      0.00000
     17       0.0899      0.00000
     18       1.2337      0.00000
     19       1.3432      0.00000
     20       1.6384      0.00000
     21       2.4745      0.00000
     22       2.9352      0.00000
     23       5.3119      0.00000
     24       5.5384      0.00000

 k-point    10 :       0.2500    0.0833    0.0000
  band No.  band energies     occupation 
      1     -19.4122      2.00000
      2     -16.8834      2.00000
      3     -16.2439      2.00000
      4     -13.7253      2.00000
      5     -12.6173      2.00000
      6     -10.9108      2.00000
      7      -9.4758      2.00000
      8      -9.1372      2.00000
      9      -8.0130      2.00000
     10      -7.3441      2.00000
     11      -6.2625      2.00000
     12      -5.5241      2.00000
     13      -5.1968      2.00000
     14      -4.6583      2.00000
     15      -4.4121      2.00000
     16      -2.6244      0.00000
     17       0.2215      0.00000
     18       1.6070      0.00000
     19       1.6509      0.00000
     20       2.4576      0.00000
     21       2.9332      0.00000
     22       3.2454      0.00000
     23       4.6836      0.00000
     24       5.5438      0.00000

 k-point    11 :       0.3333    0.0833    0.0000
  band No.  band energies     occupation 
      1     -19.2666      2.00000
      2     -17.2081      2.00000
      3     -16.3457      2.00000
      4     -13.8188      2.00000
      5     -12.1896      2.00000
      6     -10.2755      2.00000
      7      -9.5768      2.00000
      8      -8.8010      2.00000
      9      -7.8439      2.00000
     10      -7.7284      2.00000
     11      -6.2137      2.00000
     12      -6.0137      2.00000
     13      -5.9345      2.00000
     14      -4.7523      2.00000
     15      -4.7178      2.00000
     16      -2.7157      0.00000
     17       0.3691      0.00000
     18       1.9307      0.00000
     19       2.0595      0.00000
     20       3.0095      0.00000
     21       3.6577      0.00000
     22       3.7856      0.00000
     23       3.8831      0.00000
     24       4.8515      0.00000

 k-point    12 :       0.4167    0.0833    0.0000
  band No.  band energies     occupation 
      1     -19.1639      2.00000
      2     -17.4063      2.00000
      3     -16.3991      2.00000
      4     -13.8702      2.00000
      5     -11.8611      2.00000
      6      -9.9858      2.00000
      7      -9.6155      2.00000
      8      -8.7498      2.00000
      9      -7.6612      2.00000
     10      -7.4689      2.00000
     11      -6.8329      2.00000
     12      -6.3861      2.00000
     13      -6.0381      2.00000
     14      -4.9267      2.00000
     15      -4.8023      2.00000
     16      -2.7600      0.00000
     17       0.4662      0.00000
     18       2.1270      0.00000
     19       2.5684      0.00000
     20       3.1767      0.00000
     21       3.5169      0.00000
     22       4.0838      0.00000
     23       4.1718      0.00000
     24       4.7871      0.00000

 k-point    13 :       0.1667    0.1667    0.0000
  band No.  band energies     occupation 
      1     -19.4329      2.00000
      2     -16.7777      2.00000
      3     -16.3156      2.00000
      4     -13.5043      2.00000
      5     -12.8982      2.00000
      6     -10.9331      2.00000
      7      -9.5916      2.00000
      8      -9.1108      2.00000
      9      -8.0506      2.00000
     10      -7.0971      2.00000
     11      -6.4200      2.00000
     12      -5.3557      2.00000
     13      -5.0281      2.00000
     14      -4.8100      2.00000
     15      -4.4328      2.00000
     16      -2.4548      0.00000
     17      -0.0394      0.00000
     18       1.6000      0.00000
     19       1.9546      0.00000
     20       2.1779      0.00000
     21       2.7795      0.00000
     22       3.1940      0.00000
     23       5.2099      0.00000
     24       5.5529      0.00000

 k-point    14 :       0.2500    0.1667    0.0000
  band No.  band energies     occupation 
      1     -19.2946      2.00000
      2     -17.0548      2.00000
      3     -16.4994      2.00000
      4     -13.4745      2.00000
      5     -12.6170      2.00000
      6     -10.3010      2.00000
      7      -9.5569      2.00000
      8      -8.9638      2.00000
      9      -7.7929      2.00000
     10      -7.4410      2.00000
     11      -6.4928      2.00000
     12      -5.7514      2.00000
     13      -5.6320      2.00000
     14      -5.0516      2.00000
     15      -4.8084      2.00000
     16      -2.3708      0.00000
     17      -0.1060      0.00000
     18       1.9582      0.00000
     19       2.4006      0.00000
     20       2.9083      0.00000
     21       3.3196      0.00000
     22       3.5554      0.00000
     23       4.3865      0.00000
     24       4.9836      0.00000

 k-point    15 :       0.3333    0.1667    0.0000
  band No.  band energies     occupation 
      1     -19.1714      2.00000
      2     -17.2804      2.00000
      3     -16.6122      2.00000
      4     -13.4993      2.00000
      5     -12.2548      2.00000
      6     -10.1546      2.00000
      7      -9.5109      2.00000
      8      -8.4340      2.00000
      9      -7.7444      2.00000
     10      -7.5132      2.00000
     11      -6.6252      2.00000
     12      -6.1538      2.00000
     13      -6.1473      2.00000
     14      -5.1883      2.00000
     15      -5.1240      2.00000
     16      -2.3022      0.00000
     17      -0.1202      0.00000
     18       2.4171      0.00000
     19       2.7278      0.00000
     20       3.4057      0.00000
     21       3.6331      0.00000
     22       4.0190      0.00000
     23       4.1718      0.00000
     24       4.6258      0.00000

 k-point    16 :       0.4167    0.1667    0.0000
  band No.  band energies     occupation 
      1     -19.1192      2.00000
      2     -17.3701      2.00000
      3     -16.6494      2.00000
      4     -13.5131      2.00000
      5     -12.0680      2.00000
      6     -10.3397      2.00000
      7      -9.1292      2.00000
      8      -8.5358      2.00000
      9      -7.4109      2.00000
     10      -7.3586      2.00000
     11      -7.1074      2.00000
     12      -6.3559      2.00000
     13      -6.2089      2.00000
     14      -5.2584      2.00000
     15      -5.2316      2.00000
     16      -2.2778      0.00000
     17      -0.1186      0.00000
     18       2.8585      0.00000
     19       2.9711      0.00000
     20       2.9804      0.00000
     21       3.8683      0.00000
     22       3.9708      0.00000
     23       4.5832      0.00000
     24       4.5846      0.00000

 k-point    17 :       0.2500    0.2500    0.0000
  band No.  band energies     occupation 
      1     -19.1750      2.00000
      2     -17.1828      2.00000
      3     -16.7483      2.00000
      4     -13.2026      2.00000
      5     -12.5649      2.00000
      6     -10.2118      2.00000
      7      -9.4466      2.00000
      8      -8.4255      2.00000
      9      -7.5577      2.00000
     10      -7.5328      2.00000
     11      -6.7656      2.00000
     12      -6.0350      2.00000
     13      -5.9662      2.00000
     14      -5.4359      2.00000
     15      -5.2659      2.00000
     16      -2.0370      0.00000
     17      -0.4222      0.00000
     18       2.3667      0.00000
     19       3.0377      0.00000
     20       3.5552      0.00000
     21       3.7271      0.00000
     22       3.9679      0.00000
     23       4.1760      0.00000
     24       4.2013      0.00000

 k-point    18 :       0.3333    0.2500    0.0000
  band No.  band energies     occupation 
      1     -19.0951      2.00000
      2     -17.2560      2.00000
      3     -16.8964      2.00000
      4     -13.0805      2.00000
      5     -12.4127      2.00000
      6     -10.5558      2.00000
      7      -8.8308      2.00000
      8      -8.1728      2.00000
      9      -7.6601      2.00000
     10      -7.3127      2.00000
     11      -7.0074      2.00000
     12      -6.2526      2.00000
     13      -6.1662      2.00000
     14      -5.6413      2.00000
     15      -5.6178      2.00000
     16      -1.7747      0.00000
     17      -0.6559      0.00000
     18       2.8755      0.00000
     19       3.4785      0.00000
     20       3.4834      0.00000
     21       3.9234      0.00000
     22       4.0893      0.00000
     23       4.3634      0.00000
     24       4.4830      0.00000

 k-point    19 :       0.3333    0.3333    0.0000
  band No.  band energies     occupation 
      1     -19.0657      2.00000
      2     -17.1243      2.00000
      3     -17.1242      2.00000
      4     -12.6871      2.00000
      5     -12.6871      2.00000
      6     -10.7330      2.00000
      7      -8.2247      2.00000
      8      -8.2247      2.00000
      9      -7.8693      2.00000
     10      -7.2257      2.00000
     11      -7.0710      2.00000
     12      -6.0656      2.00000
     13      -6.0656      2.00000
     14      -5.9943      2.00000
     15      -5.9943      2.00000
     16      -1.2139      0.00000
     17      -1.2139      0.00000
     18       3.4155      0.00000
     19       3.4427      0.00000
     20       3.4427      0.00000
     21       4.0880      0.00000
     22       4.0880      0.00000
     23       4.3047      0.00000
     24       4.9466      0.00000


--------------------------------------------------------------------------------------------------------


 soft charge-density along one line, spin component           1
         0         1         2         3         4         5         6         7         8         9
 total charge-density along one line
 
 pseudopotential strength for first ion, spin component:           1
  6.723  10.257   0.000  -0.000   0.000   0.000  -0.000   0.000
 10.257  15.645   0.000  -0.000   0.000   0.000  -0.000   0.000
  0.000   0.000  -2.311   0.000  -0.000  -3.965   0.000  -0.000
 -0.000  -0.000   0.000  -2.316   0.000   0.000  -3.972   0.000
  0.000   0.000  -0.000   0.000  -2.311  -0.000   0.000  -3.965
  0.000   0.000  -3.965   0.000  -0.000  -6.606   0.000  -0.000
 -0.000  -0.000   0.000  -3.972   0.000   0.000  -6.615   0.000
  0.000   0.000  -0.000   0.000  -3.965  -0.000   0.000  -6.606
 total augmentation occupancy for first ion, spin component:           1
  3.709  -0.949   0.000   0.000   0.000   0.000   0.000   0.000
 -0.949   0.263  -0.000   0.000  -0.000   0.000  -0.000  -0.000
  0.000  -0.000   4.131   0.000   0.000  -1.101  -0.000   0.000
 -0.000   0.000   0.000   0.889   0.000  -0.000  -0.222  -0.000
 -0.000   0.000   0.000   0.000   4.131   0.000  -0.000  -1.101
  0.000   0.000  -1.101  -0.000   0.000   0.305   0.000   0.000
  0.000  -0.000  -0.000  -0.222  -0.000   0.000   0.056   0.000
 -0.000   0.000   0.000  -0.000  -1.101   0.000   0.000   0.305


------------------------ aborting loop because EDIFF is reached ----------------------------------------


    CHARGE:  cpu time    0.1913: real time    0.1913
    FORLOC:  cpu time    0.0078: real time    0.0078
    FORNL :  cpu time    0.2395: real time    0.2395
    STRESS:  cpu time    1.4705: real time    1.4711
    FORCOR:  cpu time    0.1129: real time    0.1129
    FORHAR:  cpu time    0.0297: real time    0.0297
    MIXING:  cpu time    0.0041: real time    0.0041
    OFIELD:  cpu time    0.0000: real time    0.0000

  FORCE on cell =-STRESS in cart. coord.  units (eV):
  Direction    XX          YY          ZZ          XY          YZ          ZX
  --------------------------------------------------------------------------------------
  Alpha Z    15.91681    15.91681    15.91681
  Ewald    3137.23420  3137.23848 -4034.52198     0.00000     0.00000    -0.00000
  Hartree  3082.38607  3082.38609 -3023.40064    -0.00000    -0.00000    -0.00000
  E(xc)    -107.48244  -107.48244  -111.31312    -0.00000     0.00000     0.00000
  Local   -6537.70061 -6537.70265  6719.99417    -0.00000     0.00000    -0.00000
  n-local   -22.03434   -21.40610   -10.35631     0.31064    -0.00000     0.00000
  augment    -1.80868    -1.80861    -1.79684    -0.00000     0.00000    -0.00000
  Kinetic   436.98630   430.09086   445.43450    -4.50279     0.00000    -0.00000
  Fock        0.00000     0.00000     0.00000     0.00000     0.00000     0.00000
  -------------------------------------------------------------------------------------
  Total       0.36488     0.36488    -0.04341     0.00000     0.00000    -0.00000
  in kB       1.83442     1.83442    -0.21824     0.00000     0.00000    -0.00000
  external pressure =        1.15 kB  Pullay stress =        0.00 kB


 VOLUME and BASIS-vectors are now :
 -----------------------------------------------------------------------------
  energy-cutoff  :      450.00
  volume of cell :      318.69
      direct lattice vectors                 reciprocal lattice vectors
     4.477733015  2.585220164  0.000000000     0.111663647  0.193407125 -0.000000000
    -4.477733015  2.585220164 -0.000000000    -0.111663647  0.193407125 -0.000000000
    -0.000000000  0.000000000 13.765137747    -0.000000000 -0.000000000  0.072647293

  length of vectors
     5.170440625  5.170440625 13.765137747     0.223327307  0.223327307  0.072647293


 FORCES acting on ions
    electron-ion (+dipol)            ewald-force                    non-local-force                 convergence-correction
 -----------------------------------------------------------------------------------------------
   -.561E-05 0.296E-04 -.227E-10   -.317E-03 -.178E-13 -.674E-18   0.694E-17 0.347E-17 0.156E-26   0.674E-09 -.421E-09 -.329E-13
   0.561E-05 0.296E-04 -.271E-10   0.317E-03 -.142E-13 -.582E-18   -.347E-17 -.694E-17 0.606E-27   -.674E-09 -.421E-09 -.349E-13
   0.258E+02 -.447E+02 -.361E-06   -.278E+02 0.482E+02 -.231E-17   0.199E+01 -.345E+01 -.312E-25   0.361E-04 -.625E-04 -.560E-13
   -.258E+02 -.447E+02 -.361E-06   0.278E+02 0.482E+02 -.215E-17   -.199E+01 -.345E+01 -.830E-25   -.361E-04 -.625E-04 -.533E-13
   -.516E+02 0.499E-03 0.175E-10   0.556E+02 0.000E+00 0.103E-17   -.398E+01 0.139E-16 -.514E-25   -.722E-04 0.777E-10 -.492E-13
   0.516E+02 0.499E-03 0.237E-10   -.556E+02 0.311E-14 0.144E-17   0.398E+01 -.278E-16 0.517E-25   0.722E-04 0.777E-10 -.534E-13
   0.258E+02 0.447E+02 0.361E-06   -.278E+02 -.482E+02 0.157E-17   0.199E+01 0.345E+01 0.844E-25   0.361E-04 0.625E-04 -.499E-13
   -.258E+02 0.447E+02 0.361E-06   0.278E+02 -.482E+02 0.168E-17   -.199E+01 0.345E+01 0.303E-25   -.361E-04 0.625E-04 -.476E-13
 -----------------------------------------------------------------------------------------------
   -.137E-12 0.349E-02 0.909E-10   0.213E-13 -.711E-14 0.886E-26   0.666E-15 0.444E-15 0.306E-26   0.213E-14 0.301E-08 -.377E-12
 
 
 POSITION                                       TOTAL-FORCE (eV/Angst)
 -----------------------------------------------------------------------------------
     -1.49258      2.58522      3.44128        -0.000000      0.000000      0.000000
      1.49258      2.58522      3.44128        -0.000000      0.000000      0.000000
     -0.71030      1.23027      3.44128        -0.026270      0.045502      0.000000
      0.71030      1.23027      3.44128         0.026270      0.045502      0.000000
     -3.05714      2.58522      3.44128         0.052541      0.000000     -0.000000
      3.05714      2.58522      3.44128        -0.052541      0.000000      0.000000
     -0.71030      3.94017      3.44128        -0.026270     -0.045502     -0.000000
      0.71030      3.94017      3.44128         0.026270     -0.045502     -0.000000
 -----------------------------------------------------------------------------------
    total drift:                               -0.000000      0.003488      0.000000


--------------------------------------------------------------------------------------------------------



  FREE ENERGIE OF THE ION-ELECTRON SYSTEM (eV)
  ---------------------------------------------------
  free  energy   TOTEN  =       -67.23752167 eV

  energy  without entropy=      -67.23752159  energy(sigma->0) =      -67.23752163
 
 d Force = 0.1275758E-04[-0.490E-03, 0.515E-03]  d Energy = 0.8124865E-03-0.800E-03
 d Force =-0.5150178E+00[-0.519E+00,-0.511E+00]  d Ewald  = 0.8285706E+02-0.834E+02


--------------------------------------------------------------------------------------------------------


    POTLOK:  cpu time    0.1106: real time    0.1106


--------------------------------------------------------------------------------------------------------




--------------------------------------------------------------------------------------------------------


    WAVPRE:  cpu time    0.0265: real time    0.0403
    FEWALD:  cpu time    0.0010: real time    0.0010
    GENKIN:  cpu time    0.0506: real time    0.0506
    ORTHCH:  cpu time    0.1156: real time    0.1156
     LOOP+:  cpu time   39.1615: real time   39.1959


--------------------------------------- Iteration     21(   1)  ---------------------------------------


    POTLOK:  cpu time    0.1103: real time    0.1111
    SETDIJ:  cpu time    0.0021: real time    0.0021
