<?xml version="1.0" encoding="ISO-8859-1"?>
<modeling>
 <generator>
  <i name="program" type="string">vasp </i>
  <i name="version" type="string">5.4.4.18Apr17-6-g9f103f2a35  </i>
  <i name="subversion" type="string">(build Mar 30 2023 15:39:25) complex            parallel </i>
  <i name="platform" type="string">LinuxIFC </i>
  <i name="date" type="string">2023 06 14 </i>
  <i name="time" type="string">15:19:09 </i>
 </generator>
 <incar>
  <i type="string" name="SYSTEM"> BC3</i>
  <i type="int" name="ISTART">     0</i>
  <i type="string" name="PREC">normal</i>
  <i type="string" name="ALGO">  Normal</i>
  <i type="int" name="ICHARG">     2</i>
  <i type="int" name="IBRION">     2</i>
  <i name="EDIFF">      0.00000100</i>
  <i name="EDIFFG">     -0.01000000</i>
  <i type="int" name="NSW">   128</i>
  <i type="int" name="ISIF">     3</i>
  <i name="ENCUT">    450.00000000</i>
  <i type="int" name="ISMEAR">     0</i>
  <i name="SIGMA">      0.10000000</i>
  <v type="int" name="KPOINT_BSE">    -1     0     0     0</v>
 </incar>
 <structure name="primitive_cell" >
  <crystal>
   <varray name="basis" >
    <v>       4.48142200       2.58735000       0.00000000 </v>
    <v>      -4.48142200       2.58735000       0.00000000 </v>
    <v>       0.00000000       0.00000000      15.00000000 </v>
   </varray>
   <i name="volume">    347.85021635 </i>
   <varray name="rec_basis" >
    <v>       0.11157173       0.19324792       0.00000000 </v>
    <v>      -0.11157173       0.19324792       0.00000000 </v>
    <v>       0.00000000       0.00000000       0.06666667 </v>
   </varray>
  </crystal>
  <varray name="positions" >
   <v>       0.33333300      -0.33333400       0.25000000 </v>
   <v>       0.16666600       0.33333300       0.25000000 </v>
   <v>      -0.33333400      -0.16666700       0.25000000 </v>
   <v>       0.16666600      -0.16666700       0.25000000 </v>
   <v>      -0.16666700       0.16666600       0.25000000 </v>
   <v>       0.33333300       0.16666600       0.25000000 </v>
   <v>      -0.16666700      -0.33333400       0.25000000 </v>
   <v>      -0.33333400       0.33333300       0.25000000 </v>
  </varray>
 </structure>
 <varray name="primitive_index" >
  <v type="int" >        1 </v>
  <v type="int" >        3 </v>
  <v type="int" >        7 </v>
  <v type="int" >        5 </v>
  <v type="int" >        6 </v>
  <v type="int" >        4 </v>
  <v type="int" >        8 </v>
  <v type="int" >        2 </v>
 </varray>
 <kpoints>
  <generation param="Gamma">
   <v type="int" name="divisions">      12       12        1 </v>
   <v name="usershift">      0.00000000       0.00000000       0.00000000 </v>
   <v name="genvec1">      0.08333333       0.00000000       0.00000000 </v>
   <v name="genvec2">      0.00000000       0.08333333       0.00000000 </v>
   <v name="genvec3">      0.00000000       0.00000000       1.00000000 </v>
   <v name="shift">      0.00000000       0.00000000       0.00000000 </v>
  </generation>
  <varray name="kpointlist" >
   <v>       0.00000000       0.00000000       0.00000000 </v>
   <v>       0.08333333       0.00000000       0.00000000 </v>
   <v>       0.16666667      -0.00000000       0.00000000 </v>
   <v>       0.25000000       0.00000000       0.00000000 </v>
   <v>       0.33333333       0.00000000       0.00000000 </v>
   <v>       0.41666667       0.00000000       0.00000000 </v>
   <v>       0.50000000       0.00000000       0.00000000 </v>
   <v>       0.08333333       0.08333333       0.00000000 </v>
   <v>       0.16666667       0.08333333       0.00000000 </v>
   <v>       0.25000000       0.08333333       0.00000000 </v>
   <v>       0.33333333       0.08333333       0.00000000 </v>
   <v>       0.41666667       0.08333333       0.00000000 </v>
   <v>       0.16666667       0.16666667       0.00000000 </v>
   <v>       0.25000000       0.16666667       0.00000000 </v>
   <v>       0.33333333       0.16666667       0.00000000 </v>
   <v>       0.41666667       0.16666667       0.00000000 </v>
   <v>       0.25000000       0.25000000       0.00000000 </v>
   <v>       0.33333333       0.25000000       0.00000000 </v>
   <v>       0.33333333       0.33333333       0.00000000 </v>
  </varray>
  <varray name="weights" >
   <v>       0.00694444 </v>
   <v>       0.04166667 </v>
   <v>       0.04166667 </v>
   <v>       0.04166667 </v>
   <v>       0.04166667 </v>
   <v>       0.04166667 </v>
   <v>       0.02083333 </v>
   <v>       0.04166667 </v>
   <v>       0.08333333 </v>
   <v>       0.08333333 </v>
   <v>       0.08333333 </v>
   <v>       0.08333333 </v>
   <v>       0.04166667 </v>
   <v>       0.08333333 </v>
   <v>       0.08333333 </v>
   <v>       0.04166667 </v>
   <v>       0.04166667 </v>
   <v>       0.08333333 </v>
   <v>       0.01388889 </v>
  </varray>
 </kpoints>
 <parameters>
  <separator name="general" >
   <i type="string" name="SYSTEM">BC3</i>
   <i type="logical" name="LCOMPAT"> F  </i>
  </separator>
  <separator name="electronic" >
   <i type="string" name="PREC">normal</i>
   <i name="ENMAX">    450.00000000</i>
   <i name="ENAUG">    644.87300000</i>
   <i name="EDIFF">      0.00000100</i>
   <i type="int" name="IALGO">    38</i>
   <i type="int" name="IWAVPR">    11</i>
   <i type="int" name="NBANDS">    24</i>
   <i name="NELECT">     30.00000000</i>
   <i type="int" name="TURBO">     0</i>
   <i type="int" name="IRESTART">     0</i>
   <i type="int" name="NREBOOT">     0</i>
   <i type="int" name="NMIN">     0</i>
   <i name="EREF">      0.00000000</i>
   <separator name="electronic smearing" >
    <i type="int" name="ISMEAR">     0</i>
    <i name="SIGMA">      0.10000000</i>
    <i name="KSPACING">      0.50000000</i>
    <i type="logical" name="KGAMMA"> T  </i>
   </separator>
   <separator name="electronic projectors" >
    <i type="logical" name="LREAL"> F  </i>
    <v name="ROPT">      0.00000000      0.00000000</v>
    <i type="int" name="LMAXPAW">  -100</i>
    <i type="int" name="LMAXMIX">     2</i>
    <i type="logical" name="NLSPLINE"> F  </i>
   </separator>
   <separator name="electronic startup" >
    <i type="int" name="ISTART">     0</i>
    <i type="int" name="ICHARG">     2</i>
    <i type="int" name="INIWAV">     1</i>
   </separator>
   <separator name="electronic spin" >
    <i type="int" name="ISPIN">     1</i>
    <i type="logical" name="LNONCOLLINEAR"> F  </i>
    <v name="MAGMOM">      1.00000000      1.00000000      1.00000000      1.00000000      1.00000000      1.00000000      1.00000000      1.00000000</v>
    <i name="NUPDOWN">     -1.00000000</i>
    <i type="logical" name="LSORBIT"> F  </i>
    <v name="SAXIS">      0.00000000      0.00000000      1.00000000</v>
    <i type="logical" name="LSPIRAL"> F  </i>
    <v name="QSPIRAL">      0.00000000      0.00000000      0.00000000</v>
    <i type="logical" name="LZEROZ"> F  </i>
   </separator>
   <separator name="electronic exchange-correlation" >
    <i type="logical" name="LASPH"> F  </i>
    <i type="logical" name="LMETAGGA"> F  </i>
   </separator>
   <separator name="electronic convergence" >
    <i type="int" name="NELM">    60</i>
    <i type="int" name="NELMDL">    -5</i>
    <i type="int" name="NELMIN">     2</i>
    <i name="ENINI">    450.00000000</i>
    <separator name="electronic convergence detail" >
     <i type="logical" name="LDIAG"> T  </i>
     <i type="logical" name="LSUBROT"> F  </i>
     <i name="WEIMIN">      0.00100000</i>
     <i name="EBREAK">      0.00000001</i>
     <i name="DEPER">      0.30000000</i>
     <i type="int" name="NRMM">     4</i>
     <i name="TIME">      0.40000000</i>
    </separator>
   </separator>
   <separator name="electronic mixer" >
    <i name="AMIX">      0.40000000</i>
    <i name="BMIX">      1.00000000</i>
    <i name="AMIN">      0.10000000</i>
    <i name="AMIX_MAG">      1.60000000</i>
    <i name="BMIX_MAG">      1.00000000</i>
    <separator name="electronic mixer details" >
     <i type="int" name="IMIX">     4</i>
     <i type="logical" name="MIXFIRST"> F  </i>
     <i type="int" name="MAXMIX">   -45</i>
     <i name="WC">    100.00000000</i>
     <i type="int" name="INIMIX">     1</i>
     <i type="int" name="MIXPRE">     1</i>
     <i type="int" name="MREMOVE">     5</i>
    </separator>
   </separator>
   <separator name="electronic dipolcorrection" >
    <i type="logical" name="LDIPOL"> F  </i>
    <i type="logical" name="LMONO"> F  </i>
    <i type="int" name="IDIPOL">     0</i>
    <i name="EPSILON">      1.00000000</i>
    <v name="DIPOL">   -100.00000000   -100.00000000   -100.00000000</v>
    <i name="EFIELD">      0.00000000</i>
   </separator>
  </separator>
  <separator name="grids" >
   <i type="int" name="NGX">    28</i>
   <i type="int" name="NGY">    28</i>
   <i type="int" name="NGZ">    80</i>
   <i type="int" name="NGXF">    56</i>
   <i type="int" name="NGYF">    56</i>
   <i type="int" name="NGZF">   160</i>
   <i type="logical" name="ADDGRID"> F  </i>
  </separator>
  <separator name="ionic" >
   <i type="int" name="NSW">   128</i>
   <i type="int" name="IBRION">     2</i>
   <i type="int" name="MDALGO">     0</i>
   <i type="int" name="ISIF">     3</i>
   <i name="PSTRESS">      0.00000000</i>
   <i name="EDIFFG">     -0.01000000</i>
   <i type="int" name="NFREE">     1</i>
   <i name="POTIM">      0.50000000</i>
   <i name="SMASS">     -3.00000000</i>
   <i name="SCALEE">      1.00000000</i>
  </separator>
  <separator name="ionic md" >
   <i name="TEBEG">      0.00010000</i>
   <i name="TEEND">      0.00010000</i>
   <i type="int" name="NBLOCK">     1</i>
   <i type="int" name="KBLOCK">   128</i>
   <i type="int" name="NPACO">   256</i>
   <i name="APACO">     16.00000000</i>
  </separator>
  <separator name="symmetry" >
   <i type="int" name="ISYM">     2</i>
   <i name="SYMPREC">      0.00001000</i>
  </separator>
  <separator name="dos" >
   <i type="int" name="LORBIT">     0</i>
   <v name="RWIGS">     -1.00000000     -1.00000000</v>
   <i type="int" name="NEDOS">   301</i>
   <i name="EMIN">     10.00000000</i>
   <i name="EMAX">    -10.00000000</i>
   <i name="EFERMI">      0.00000000</i>
  </separator>
  <separator name="writing" >
   <i type="int" name="NWRITE">     2</i>
   <i type="logical" name="LWAVE"> T  </i>
   <i type="logical" name="LDOWNSAMPLE"> F  </i>
   <i type="logical" name="LCHARG"> T  </i>
   <i type="logical" name="LPARD"> F  </i>
   <i type="logical" name="LVTOT"> F  </i>
   <i type="logical" name="LVHAR"> F  </i>
   <i type="logical" name="LELF"> F  </i>
   <i type="logical" name="LOPTICS"> F  </i>
   <v name="STM">      0.00000000      0.00000000      0.00000000      0.00000000      0.00000000      0.00000000      0.00000000</v>
  </separator>
  <separator name="performance" >
   <i type="int" name="NPAR">    12</i>
   <i type="int" name="NSIM">     4</i>
   <i type="int" name="NBLK">    -1</i>
   <i type="logical" name="LPLANE"> T  </i>
   <i type="logical" name="LSCALAPACK"> T  </i>
   <i type="logical" name="LSCAAWARE"> F  </i>
   <i type="logical" name="LSCALU"> F  </i>
   <i type="logical" name="LASYNC"> F  </i>
   <i type="logical" name="LORBITALREAL"> F  </i>
  </separator>
  <separator name="miscellaneous" >
   <i type="int" name="IDIOT">     3</i>
   <i type="int" name="ISPECIAL">     0</i>
   <i type="logical" name="LMUSIC"> F  </i>
   <v name="POMASS">     10.81100000     12.01100000</v>
   <v name="DARWINR">      0.00000000      0.00000000</v>
   <v name="DARWINV">      1.00000000      1.00000000</v>
   <i type="logical" name="LCORR"> T  </i>
  </separator>
  <i type="logical" name="GGA_COMPAT"> T  </i>
  <i type="logical" name="LBERRY"> F  </i>
  <i type="int" name="ICORELEVEL">     0</i>
  <i type="logical" name="LDAU"> F  </i>
  <i type="int" name="I_CONSTRAINED_M">     0</i>
  <separator name="electronic exchange-correlation" >
   <i type="string" name="GGA">--</i>
   <i type="int" name="VOSKOWN">     0</i>
   <i type="logical" name="LHFCALC"> F  </i>
   <i type="string" name="PRECFOCK"></i>
   <i type="logical" name="LSYMGRAD"> F  </i>
   <i type="logical" name="LHFONE"> F  </i>
   <i type="logical" name="LRHFCALC"> F  </i>
   <i type="logical" name="LTHOMAS"> F  </i>
   <i type="logical" name="LMODELHF"> F  </i>
   <i name="ENCUT4O">     -1.00000000</i>
   <i type="int" name="EXXOEP">     0</i>
   <i type="int" name="FOURORBIT">     0</i>
   <i name="AEXX">      0.00000000</i>
   <i name="HFALPHA">      0.00000000</i>
   <i name="MCALPHA">      0.00000000</i>
   <i name="ALDAX">      1.00000000</i>
   <i name="AGGAX">      1.00000000</i>
   <i name="ALDAC">      1.00000000</i>
   <i name="AGGAC">      1.00000000</i>
   <i type="int" name="NKREDX">     1</i>
   <i type="int" name="NKREDY">     1</i>
   <i type="int" name="NKREDZ">     1</i>
   <i type="logical" name="SHIFTRED"> F  </i>
   <i type="logical" name="ODDONLY"> F  </i>
   <i type="logical" name="EVENONLY"> F  </i>
   <i type="int" name="LMAXFOCK">     0</i>
   <i type="int" name="NMAXFOCKAE">     0</i>
   <i type="logical" name="LFOCKAEDFT"> F  </i>
   <i name="HFSCREEN">      0.00000000</i>
   <i name="HFSCREENC">      0.00000000</i>
   <i type="int" name="NBANDSGWLOW">     0</i>
  </separator>
  <separator name="vdW DFT" >
   <i type="logical" name="LUSE_VDW"> F  </i>
   <i name="Zab_VDW">     -0.84910000</i>
   <i name="PARAM1">      0.12340000</i>
   <i name="PARAM2">      1.00000000</i>
   <i name="PARAM3">      0.00000000</i>
  </separator>
  <separator name="model GW" >
   <i type="int" name="MODEL_GW">     0</i>
   <i name="MODEL_EPS0">     26.08876623</i>
   <i name="MODEL_ALPHA">      1.00000000</i>
  </separator>
  <separator name="linear response parameters" >
   <i type="logical" name="LEPSILON"> F  </i>
   <i type="logical" name="LRPA"> F  </i>
   <i type="logical" name="LNABLA"> F  </i>
   <i type="logical" name="LVEL"> F  </i>
   <i type="int" name="KINTER">     0</i>
   <i name="CSHIFT">      0.10000000</i>
   <i name="OMEGAMAX">     -1.00000000</i>
   <i name="DEG_THRESHOLD">      0.00200000</i>
   <i name="RTIME">     -0.10000000</i>
   <i name="WPLASMAI">      0.00000000</i>
   <v name="DFIELD">      0.00000000      0.00000000      0.00000000</v>
   <v name="WPLASMA">      0.00000000      0.00000000      0.00000000      0.00000000      0.00000000      0.00000000      0.00000000      0.00000000      0.00000000</v>
  </separator>
  <separator name="orbital magnetization" >
   <i type="logical" name="NUCIND"> F  </i>
   <v name="MAGPOS">      0.00000000      0.00000000      0.00000000</v>
   <i type="logical" name="LNICSALL"> T  </i>
   <i type="logical" name="ORBITALMAG"> F  </i>
   <i type="logical" name="LMAGBLOCH"> F  </i>
   <i type="logical" name="LCHIMAG"> F  </i>
   <i type="logical" name="LGAUGE"> T  </i>
   <i type="int" name="MAGATOM">     0</i>
   <v name="MAGDIPOL">      0.00000000      0.00000000      0.00000000</v>
   <v name="AVECCONST">      0.00000000      0.00000000      0.00000000</v>
  </separator>
  <separator name="response functions" >
   <i type="logical" name="LADDER"> F  </i>
   <i type="logical" name="LRPAFORCE"> F  </i>
   <i type="logical" name="LFXC"> F  </i>
   <i type="logical" name="LHARTREE"> T  </i>
   <i type="int" name="IBSE">     0</i>
   <v type="int" name="KPOINT">    -1     0     0     0</v>
   <i type="logical" name="LTCTE"> F  </i>
   <i type="logical" name="LTETE"> F  </i>
   <i type="logical" name="LTRIPLET"> F  </i>
   <i type="logical" name="LFXCEPS"> F  </i>
   <i type="logical" name="LFXHEG"> F  </i>
   <i type="int" name="NATURALO">     2</i>
   <i type="logical" name="L2ORDER"> F  </i>
   <i type="logical" name="LMP2LT"> F  </i>
   <i type="logical" name="LUSEW"> F  </i>
   <i name="ENCUTGW">     -2.00000000</i>
   <i name="ENCUTGWSOFT">     -2.00000000</i>
   <i name="ENCUTLF">     -1.00000000</i>
   <i type="int" name="LMAXMP2">    -1</i>
   <i name="SCISSOR">      0.00000000</i>
   <i type="int" name="NOMEGA">     0</i>
   <i type="int" name="NOMEGAR">     0</i>
   <i type="int" name="NBANDSGW">    -1</i>
   <i type="int" name="NBANDSO">    -1</i>
   <i type="int" name="NBANDSV">    -1</i>
   <i type="int" name="NELM">     1</i>
   <i type="int" name="NELMHF">     1</i>
   <i type="int" name="DIM">     3</i>
   <i type="int" name="ANTIRES">     0</i>
   <i name="OMEGAMAX">    -30.00000000</i>
   <i name="OMEGAMIN">    -30.00000000</i>
   <i name="OMEGATL">   -200.00000000</i>
   <i type="int" name="OMEGAGRID">   140</i>
   <i name="CSHIFT">     -0.10000000</i>
   <i type="logical" name="SELFENERGY"> F  </i>
   <i type="logical" name="LSPECTRAL"> F  </i>
   <i type="logical" name="LSPECTRALGW"> F  </i>
   <i type="logical" name="LSINGLES"> F  </i>
   <i type="logical" name="LFERMIGW"> F  </i>
   <i type="logical" name="ODDONLYGW"> F  </i>
   <i type="logical" name="EVENONLYGW"> F  </i>
   <i type="int" name="NKREDLFX">     1</i>
   <i type="int" name="NKREDLFY">     1</i>
   <i type="int" name="NKREDLFZ">     1</i>
   <i type="int" name="MAXMEM">  2800</i>
   <i type="int" name="TELESCOPE">     0</i>
   <i type="int" name="TAUPAR">     1</i>
   <i type="int" name="OMEGAPAR">    -1</i>
   <i name="LAMBDA">      1.00000000</i>
  </separator>
  <separator name="External order field" >
   <i name="OFIELD_KAPPA">      0.00000000</i>
   <v name="OFIELD_K">      0.00000000      0.00000000      0.00000000</v>
   <i name="OFIELD_Q6_NEAR">      0.00000000</i>
   <i name="OFIELD_Q6_FAR">      0.00000000</i>
   <i name="OFIELD_A">      0.00000000</i>
  </separator>
 </parameters>
 <atominfo>
  <atoms>       8 </atoms>
  <types>       2 </types>
  <array name="atoms" >
   <dimension dim="1">ion</dimension>
   <field type="string">element</field>
   <field type="int">atomtype</field>
   <set>
    <rc><c>B </c><c>   1</c></rc>
    <rc><c>B </c><c>   1</c></rc>
    <rc><c>C </c><c>   2</c></rc>
    <rc><c>C </c><c>   2</c></rc>
    <rc><c>C </c><c>   2</c></rc>
    <rc><c>C </c><c>   2</c></rc>
    <rc><c>C </c><c>   2</c></rc>
    <rc><c>C </c><c>   2</c></rc>
   </set>
  </array>
  <array name="atomtypes" >
   <dimension dim="1">type</dimension>
   <field type="int">atomspertype</field>
   <field type="string">element</field>
   <field>mass</field>
   <field>valence</field>
   <field type="string">pseudopotential</field>
   <set>
    <rc><c>   2</c><c>B </c><c>     10.81100000</c><c>      3.00000000</c><c>  PAW_PBE B 06Sep2000                   </c></rc>
    <rc><c>   6</c><c>C </c><c>     12.01100000</c><c>      4.00000000</c><c>  PAW_PBE C 08Apr2002                   </c></rc>
   </set>
  </array>
 </atominfo>
 <structure name="initialpos" >
  <crystal>
   <varray name="basis" >
    <v>       4.48142200       2.58735000       0.00000000 </v>
    <v>      -4.48142200       2.58735000       0.00000000 </v>
    <v>       0.00000000       0.00000000      15.00000000 </v>
   </varray>
   <i name="volume">    347.85021635 </i>
   <varray name="rec_basis" >
    <v>       0.11157173       0.19324792       0.00000000 </v>
    <v>      -0.11157173       0.19324792       0.00000000 </v>
    <v>       0.00000000       0.00000000       0.06666667 </v>
   </varray>
  </crystal>
  <varray name="positions" >
   <v>       0.33333300       0.66666600       0.25000000 </v>
   <v>       0.66666600       0.33333300       0.25000000 </v>
   <v>       0.16666600       0.33333300       0.25000000 </v>
   <v>       0.33333300       0.16666600       0.25000000 </v>
   <v>       0.16666600       0.83333300       0.25000000 </v>
   <v>       0.83333300       0.16666600       0.25000000 </v>
   <v>       0.66666600       0.83333300       0.25000000 </v>
   <v>       0.83333300       0.66666600       0.25000000 </v>
  </varray>
 </structure>
 <calculation>
  <scstep>
   <time name="dav">    1.30    1.30</time>
   <time name="total">    1.35    1.35</time>
   <energy>
    <i name="alphaZ">     14.58243785 </i>
    <i name="ewald">   2579.36867383 </i>
    <i name="hartreedc">  -3341.51811835 </i>
    <i name="XCdc">     90.82341729 </i>
    <i name="pawpsdc">    738.13200929 </i>
    <i name="pawaedc">   -739.83780425 </i>
    <i name="eentropy">     -0.00449015 </i>
    <i name="bandstr">   -152.77079246 </i>
    <i name="atom">   1025.20389953 </i>
    <i name="e_fr_energy">    213.97923257 </i>
    <i name="e_wo_entrp">    213.98372272 </i>
    <i name="e_0_energy">    213.98147765 </i>
   </energy>
  </scstep>
  <scstep>
   <time name="dav">    1.77    1.78</time>
   <time name="total">    1.77    1.78</time>
   <energy>
    <i name="e_fr_energy">    -41.07942466 </i>
    <i name="e_wo_entrp">    -41.06856042 </i>
    <i name="e_0_energy">    -41.07399254 </i>
   </energy>
  </scstep>
  <scstep>
   <time name="dav">    1.64    1.64</time>
   <time name="total">    1.64    1.64</time>
   <energy>
    <i name="e_fr_energy">    -71.46301308 </i>
    <i name="e_wo_entrp">    -71.46301308 </i>
    <i name="e_0_energy">    -71.46301308 </i>
   </energy>
  </scstep>
  <scstep>
   <time name="dav">    1.64    1.64</time>
   <time name="total">    1.64    1.64</time>
   <energy>
    <i name="e_fr_energy">    -72.11681706 </i>
    <i name="e_wo_entrp">    -72.11681706 </i>
    <i name="e_0_energy">    -72.11681706 </i>
   </energy>
  </scstep>
  <scstep>
   <time name="dav">    1.69    1.69</time>
   <time name="total">    1.76    1.76</time>
   <energy>
    <i name="e_fr_energy">    -72.13857359 </i>
    <i name="e_wo_entrp">    -72.13857359 </i>
    <i name="e_0_energy">    -72.13857359 </i>
   </energy>
  </scstep>
  <scstep>
   <time name="dav">    1.59    1.59</time>
   <time name="total">    1.70    1.70</time>
   <energy>
    <i name="e_fr_energy">    -68.07621832 </i>
    <i name="e_wo_entrp">    -68.07621830 </i>
    <i name="e_0_energy">    -68.07621831 </i>
   </energy>
  </scstep>
  <scstep>
   <time name="dav">    1.76    1.76</time>
   <time name="total">    1.87    1.87</time>
   <energy>
    <i name="e_fr_energy">    -66.34913833 </i>
    <i name="e_wo_entrp">    -66.34909225 </i>
    <i name="e_0_energy">    -66.34911529 </i>
   </energy>
  </scstep>
  <scstep>
   <time name="dav">    1.72    1.72</time>
   <time name="total">    1.84    1.84</time>
   <energy>
    <i name="e_fr_energy">    -66.31269507 </i>
    <i name="e_wo_entrp">    -66.31264687 </i>
    <i name="e_0_energy">    -66.31267097 </i>
   </energy>
  </scstep>
  <scstep>
   <time name="dav">    1.55    1.55</time>
   <time name="total">    1.66    1.66</time>
   <energy>
    <i name="e_fr_energy">    -66.30319812 </i>
    <i name="e_wo_entrp">    -66.30312964 </i>
    <i name="e_0_energy">    -66.30316388 </i>
   </energy>
  </scstep>
  <scstep>
   <time name="dav">    1.47    1.47</time>
   <time name="total">    1.59    1.59</time>
   <energy>
    <i name="e_fr_energy">    -66.29445908 </i>
    <i name="e_wo_entrp">    -66.29434858 </i>
    <i name="e_0_energy">    -66.29440383 </i>
   </energy>
  </scstep>
  <scstep>
   <time name="dav">    1.38    1.38</time>
   <time name="total">    1.50    1.50</time>
   <energy>
    <i name="e_fr_energy">    -66.29233649 </i>
    <i name="e_wo_entrp">    -66.29219933 </i>
    <i name="e_0_energy">    -66.29226791 </i>
   </energy>
  </scstep>
  <scstep>
   <time name="dav">    1.68    1.85</time>
   <time name="total">    1.80    1.97</time>
   <energy>
    <i name="e_fr_energy">    -66.29268338 </i>
    <i name="e_wo_entrp">    -66.29254236 </i>
    <i name="e_0_energy">    -66.29261287 </i>
   </energy>
  </scstep>
  <scstep>
   <time name="dav">    2.10    2.18</time>
   <time name="total">    2.24    2.33</time>
   <energy>
    <i name="e_fr_energy">    -66.29453506 </i>
    <i name="e_wo_entrp">    -66.29439917 </i>
    <i name="e_0_energy">    -66.29446711 </i>
   </energy>
  </scstep>
  <scstep>
   <time name="dav">    1.38    1.39</time>
   <time name="total">    1.50    1.54</time>
   <energy>
    <i name="e_fr_energy">    -66.29700345 </i>
    <i name="e_wo_entrp">    -66.29686938 </i>
    <i name="e_0_energy">    -66.29693641 </i>
   </energy>
  </scstep>
  <scstep>
   <time name="dav">    1.50    1.50</time>
   <time name="total">    1.61    1.61</time>
   <energy>
    <i name="e_fr_energy">    -66.29763662 </i>
    <i name="e_wo_entrp">    -66.29750067 </i>
    <i name="e_0_energy">    -66.29756865 </i>
   </energy>
  </scstep>
  <scstep>
   <time name="dav">    1.33    1.33</time>
   <time name="total">    1.45    1.45</time>
   <energy>
    <i name="e_fr_energy">    -66.29794201 </i>
    <i name="e_wo_entrp">    -66.29780631 </i>
    <i name="e_0_energy">    -66.29787416 </i>
   </energy>
  </scstep>
  <scstep>
   <time name="dav">    1.39    1.39</time>
   <time name="total">    1.51    1.51</time>
   <energy>
    <i name="e_fr_energy">    -66.29796918 </i>
    <i name="e_wo_entrp">    -66.29783337 </i>
    <i name="e_0_energy">    -66.29790127 </i>
   </energy>
  </scstep>
  <scstep>
   <time name="dav">    1.13    1.13</time>
   <time name="total">    1.25    1.25</time>
   <energy>
    <i name="e_fr_energy">    -66.29798249 </i>
    <i name="e_wo_entrp">    -66.29784681 </i>
    <i name="e_0_energy">    -66.29791465 </i>
   </energy>
  </scstep>
  <scstep>
   <time name="dav">    1.33    1.33</time>
   <time name="total">    1.37    1.37</time>
   <energy>
    <i name="alphaZ">     14.58243785 </i>
    <i name="ewald">   2579.36867383 </i>
    <i name="hartreedc">  -3473.13420724 </i>
    <i name="XCdc">     95.51938015 </i>
    <i name="pawpsdc">   2846.45239006 </i>
    <i name="pawaedc">  -2848.96599412 </i>
    <i name="eentropy">     -0.00013570 </i>
    <i name="bandstr">   -305.32442718 </i>
    <i name="atom">   1025.20389953 </i>
    <i name="e_fr_energy">    -66.29798283 </i>
    <i name="e_wo_entrp">    -66.29784713 </i>
    <i name="e_0_energy">    -66.29791498 </i>
   </energy>
  </scstep>
  <structure>
   <crystal>
    <varray name="basis" >
     <v>       4.48142200       2.58735000       0.00000000 </v>
     <v>      -4.48142200       2.58735000       0.00000000 </v>
     <v>       0.00000000       0.00000000      15.00000000 </v>
    </varray>
    <i name="volume">    347.85021635 </i>
    <varray name="rec_basis" >
     <v>       0.11157173       0.19324792       0.00000000 </v>
     <v>      -0.11157173       0.19324792       0.00000000 </v>
     <v>       0.00000000       0.00000000       0.06666667 </v>
    </varray>
   </crystal>
   <varray name="positions" >
    <v>       0.33333300       0.66666600       0.25000000 </v>
    <v>       0.66666600       0.33333300       0.25000000 </v>
    <v>       0.16666600       0.33333300       0.25000000 </v>
    <v>       0.33333300       0.16666600       0.25000000 </v>
    <v>       0.16666600       0.83333300       0.25000000 </v>
    <v>       0.83333300       0.16666600       0.25000000 </v>
    <v>       0.66666600       0.83333300       0.25000000 </v>
    <v>       0.83333300       0.66666600       0.25000000 </v>
   </varray>
  </structure>
  <varray name="forces" >
   <v>       0.00000000       0.00000000      -0.00000000 </v>
   <v>       0.00000000       0.00000000      -0.00000000 </v>
   <v>       2.14482563      -3.71494668       0.00000000 </v>
   <v>      -2.14482563      -3.71494668      -0.00000000 </v>
   <v>      -4.28965126       0.00000000      -0.00000000 </v>
   <v>       4.28965126       0.00000000       0.00000000 </v>
   <v>       2.14482563       3.71494668      -0.00000000 </v>
   <v>      -2.14482563       3.71494668      -0.00000000 </v>
  </varray>
  <varray name="stress" >
   <v>      -7.12219592       0.00000000      -0.00000000 </v>
   <v>       0.00000000      -7.12219483      -0.00000000 </v>
   <v>       0.00000000      -0.00000000      -0.85385537 </v>
  </varray>
  <energy>
   <i name="e_fr_energy">    -66.29798283 </i>
   <i name="e_wo_entrp">    -66.29791498 </i>
   <i name="e_0_energy">     -0.00013570 </i>
  </energy>
  <time name="totalsc">   33.72   34.24</time>
 </calculation>
 <calculation>
  <scstep>
   <time name="dav">    1.30    1.31</time>
   <time name="total">    1.42    1.42</time>
   <energy>
    <i name="alphaZ">     14.87487326 </i>
    <i name="ewald">   2729.84186591 </i>
    <i name="hartreedc">  -3589.37665664 </i>
    <i name="XCdc">     97.35247983 </i>
    <i name="pawpsdc">   2846.44274596 </i>
    <i name="pawaedc">  -2848.95634809 </i>
    <i name="eentropy">     -0.00000000 </i>
    <i name="bandstr">   -339.23192967 </i>
    <i name="atom">   1025.20389953 </i>
    <i name="e_fr_energy">    -63.84906991 </i>
    <i name="e_wo_entrp">    -63.84906991 </i>
    <i name="e_0_energy">    -63.84906991 </i>
   </energy>
  </scstep>
  <scstep>
   <time name="dav">    1.73    1.73</time>
   <time name="total">    1.84    1.84</time>
   <energy>
    <i name="e_fr_energy">    -63.27639767 </i>
    <i name="e_wo_entrp">    -63.27639767 </i>
    <i name="e_0_energy">    -63.27639767 </i>
   </energy>
  </scstep>
  <scstep>
   <time name="dav">    1.41    1.41</time>
   <time name="total">    1.52    1.52</time>
   <energy>
    <i name="e_fr_energy">    -62.98434516 </i>
    <i name="e_wo_entrp">    -62.98434516 </i>
    <i name="e_0_energy">    -62.98434516 </i>
   </energy>
  </scstep>
  <scstep>
   <time name="dav">    1.62    1.63</time>
   <time name="total">    1.74    1.74</time>
   <energy>
    <i name="e_fr_energy">    -62.97042381 </i>
    <i name="e_wo_entrp">    -62.97042381 </i>
    <i name="e_0_energy">    -62.97042381 </i>
   </energy>
  </scstep>
  <scstep>
   <time name="dav">    1.55    1.55</time>
   <time name="total">    1.66    1.66</time>
   <energy>
    <i name="e_fr_energy">    -62.96603546 </i>
    <i name="e_wo_entrp">    -62.96603546 </i>
    <i name="e_0_energy">    -62.96603546 </i>
   </energy>
  </scstep>
  <scstep>
   <time name="dav">    1.50    1.50</time>
   <time name="total">    1.61    1.61</time>
   <energy>
    <i name="e_fr_energy">    -62.96620805 </i>
    <i name="e_wo_entrp">    -62.96620805 </i>
    <i name="e_0_energy">    -62.96620805 </i>
   </energy>
  </scstep>
  <scstep>
   <time name="dav">    1.30    1.30</time>
   <time name="total">    1.42    1.42</time>
   <energy>
    <i name="e_fr_energy">    -62.96636454 </i>
    <i name="e_wo_entrp">    -62.96636454 </i>
    <i name="e_0_energy">    -62.96636454 </i>
   </energy>
  </scstep>
  <scstep>
   <time name="dav">    1.40    1.40</time>
   <time name="total">    1.51    1.51</time>
   <energy>
    <i name="e_fr_energy">    -62.96648904 </i>
    <i name="e_wo_entrp">    -62.96648904 </i>
    <i name="e_0_energy">    -62.96648904 </i>
   </energy>
  </scstep>
  <scstep>
   <time name="dav">    1.33    1.33</time>
   <time name="total">    1.44    1.45</time>
   <energy>
    <i name="e_fr_energy">    -62.96673406 </i>
    <i name="e_wo_entrp">    -62.96673406 </i>
    <i name="e_0_energy">    -62.96673406 </i>
   </energy>
  </scstep>
  <scstep>
   <time name="dav">    1.48    1.48</time>
   <time name="total">    1.59    1.59</time>
   <energy>
    <i name="e_fr_energy">    -62.96681085 </i>
    <i name="e_wo_entrp">    -62.96681085 </i>
    <i name="e_0_energy">    -62.96681085 </i>
   </energy>
  </scstep>
  <scstep>
   <time name="dav">    1.49    1.51</time>
   <time name="total">    1.61    1.63</time>
   <energy>
    <i name="e_fr_energy">    -62.96685355 </i>
    <i name="e_wo_entrp">    -62.96685355 </i>
    <i name="e_0_energy">    -62.96685355 </i>
   </energy>
  </scstep>
  <scstep>
   <time name="dav">    1.40    1.41</time>
   <time name="total">    1.52    1.52</time>
   <energy>
    <i name="e_fr_energy">    -62.96691420 </i>
    <i name="e_wo_entrp">    -62.96691420 </i>
    <i name="e_0_energy">    -62.96691420 </i>
   </energy>
  </scstep>
  <scstep>
   <time name="dav">    1.24    1.24</time>
   <time name="total">    1.35    1.35</time>
   <energy>
    <i name="e_fr_energy">    -62.96692366 </i>
    <i name="e_wo_entrp">    -62.96692366 </i>
    <i name="e_0_energy">    -62.96692366 </i>
   </energy>
  </scstep>
  <scstep>
   <time name="dav">    1.15    1.15</time>
   <time name="total">    1.27    1.27</time>
   <energy>
    <i name="e_fr_energy">    -62.96693439 </i>
    <i name="e_wo_entrp">    -62.96693439 </i>
    <i name="e_0_energy">    -62.96693439 </i>
   </energy>
  </scstep>
  <scstep>
   <time name="dav">    1.18    1.19</time>
   <time name="total">    1.23    1.23</time>
   <energy>
    <i name="alphaZ">     14.87487326 </i>
    <i name="ewald">   2729.84186591 </i>
    <i name="hartreedc">  -3621.14342673 </i>
    <i name="XCdc">     98.43923071 </i>
    <i name="pawpsdc">   3569.36244408 </i>
    <i name="pawaedc">  -3572.16412085 </i>
    <i name="eentropy">     -0.00000000 </i>
    <i name="bandstr">   -307.38170103 </i>
    <i name="atom">   1025.20389953 </i>
    <i name="e_fr_energy">    -62.96693511 </i>
    <i name="e_wo_entrp">    -62.96693511 </i>
    <i name="e_0_energy">    -62.96693511 </i>
   </energy>
  </scstep>
  <structure>
   <crystal>
    <varray name="basis" >
     <v>       4.43963390       2.56322363      -0.00000000 </v>
     <v>      -4.43963390       2.56322363       0.00000000 </v>
     <v>       0.00000000      -0.00000000      14.98323134 </v>
    </varray>
    <i name="volume">    341.01158852 </i>
    <varray name="rec_basis" >
     <v>       0.11262190       0.19506687      -0.00000000 </v>
     <v>      -0.11262190       0.19506687       0.00000000 </v>
     <v>       0.00000000       0.00000000       0.06674128 </v>
    </varray>
   </crystal>
   <varray name="positions" >
    <v>       0.33333300       0.66666600       0.25000000 </v>
    <v>       0.66666600       0.33333300       0.25000000 </v>
    <v>       0.14357688       0.28715476       0.25000000 </v>
    <v>       0.28715476       0.14357688       0.25000000 </v>
    <v>       0.14357688       0.85642212       0.25000000 </v>
    <v>       0.85642212       0.14357688       0.25000000 </v>
    <v>       0.71284424       0.85642212       0.25000000 </v>
    <v>       0.85642212       0.71284424       0.25000000 </v>
   </varray>
  </structure>
  <varray name="forces" >
   <v>       0.00000000       0.00000000      -0.00000000 </v>
   <v>       0.00000000       0.00000000      -0.00000000 </v>
   <v>      -5.47713285       9.48667167      -0.00000000 </v>
   <v>       5.47713285       9.48667167      -0.00000000 </v>
   <v>      10.95426571       0.00000000      -0.00000000 </v>
   <v>     -10.95426571       0.00000000      -0.00000000 </v>
   <v>      -5.47713285      -9.48667167       0.00000000 </v>
   <v>       5.47713285      -9.48667167       0.00000000 </v>
  </varray>
  <varray name="stress" >
   <v>     117.17280044       0.00000000       0.00000000 </v>
   <v>       0.00000000     117.17278284       0.00000000 </v>
   <v>       0.00000000       0.00000000      -0.72189484 </v>
  </varray>
  <energy>
   <i name="e_fr_energy">    -62.96693511 </i>
   <i name="e_wo_entrp">    -62.96693511 </i>
   <i name="e_0_energy">     -0.00000000 </i>
  </energy>
  <time name="totalsc">   24.80   24.93</time>
 </calculation>
 <calculation>
  <scstep>
   <time name="dav">    1.30    1.30</time>
   <time name="total">    1.42    1.42</time>
   <energy>
    <i name="alphaZ">     14.68310877 </i>
    <i name="ewald">   2616.70276421 </i>
    <i name="hartreedc">  -3529.56297605 </i>
    <i name="XCdc">     96.83881547 </i>
    <i name="pawpsdc">   3569.38820573 </i>
    <i name="pawaedc">  -3572.18985678 </i>
    <i name="eentropy">     -0.00307658 </i>
    <i name="bandstr">   -288.83700204 </i>
    <i name="atom">   1025.20389953 </i>
    <i name="e_fr_energy">    -67.77611774 </i>
    <i name="e_wo_entrp">    -67.77304116 </i>
    <i name="e_0_energy">    -67.77457945 </i>
   </energy>
  </scstep>
  <scstep>
   <time name="dav">    1.62    1.62</time>
   <time name="total">    1.73    1.73</time>
   <energy>
    <i name="e_fr_energy">    -67.30734642 </i>
    <i name="e_wo_entrp">    -67.30734393 </i>
    <i name="e_0_energy">    -67.30734518 </i>
   </energy>
  </scstep>
  <scstep>
