<?xml version="1.0" encoding="ISO-8859-1"?>
<modeling>
 <generator>
  <i name="program" type="string">vasp </i>
  <i name="version" type="string">5.4.4.18Apr17-6-g9f103f2a35  </i>
  <i name="subversion" type="string">(build Mar 30 2023 15:39:25) complex            parallel </i>
  <i name="platform" type="string">LinuxIFC </i>
  <i name="date" type="string">2023 06 14 </i>
  <i name="time" type="string">15:37:17 </i>
 </generator>
 <incar>
  <i type="string" name="SYSTEM"> BC3</i>
  <i type="int" name="ISTART">     0</i>
  <i type="string" name="PREC">accurate</i>
  <i type="string" name="ALGO">  Normal</i>
  <i type="int" name="ICHARG">     2</i>
  <i type="int" name="IBRION">     2</i>
  <i name="EDIFF">      0.00000100</i>
  <i name="EDIFFG">     -0.01000000</i>
  <i type="int" name="NSW">   128</i>
  <i type="int" name="ISIF">     3</i>
  <i name="ENCUT">    450.00000000</i>
  <i type="int" name="ISMEAR">     0</i>
  <i name="SIGMA">      0.10000000</i>
  <v type="int" name="KPOINT_BSE">    -1     0     0     0</v>
 </incar>
 <structure name="primitive_cell" >
  <crystal>
   <varray name="basis" >
    <v>       4.48142200       2.58735000       0.00000000 </v>
    <v>      -4.48142200       2.58735000       0.00000000 </v>
    <v>       0.00000000       0.00000000      15.00000000 </v>
   </varray>
   <i name="volume">    347.85021635 </i>
   <varray name="rec_basis" >
    <v>       0.11157173       0.19324792       0.00000000 </v>
    <v>      -0.11157173       0.19324792       0.00000000 </v>
    <v>       0.00000000       0.00000000       0.06666667 </v>
   </varray>
  </crystal>
  <varray name="positions" >
   <v>       0.33333300      -0.33333400       0.25000000 </v>
   <v>       0.16666600       0.33333300       0.25000000 </v>
   <v>      -0.33333400      -0.16666700       0.25000000 </v>
   <v>       0.16666600      -0.16666700       0.25000000 </v>
   <v>      -0.16666700       0.16666600       0.25000000 </v>
   <v>       0.33333300       0.16666600       0.25000000 </v>
   <v>      -0.16666700      -0.33333400       0.25000000 </v>
   <v>      -0.33333400       0.33333300       0.25000000 </v>
  </varray>
 </structure>
 <varray name="primitive_index" >
  <v type="int" >        1 </v>
  <v type="int" >        3 </v>
  <v type="int" >        7 </v>
  <v type="int" >        5 </v>
  <v type="int" >        6 </v>
  <v type="int" >        4 </v>
  <v type="int" >        8 </v>
  <v type="int" >        2 </v>
 </varray>
 <kpoints>
  <generation param="Gamma">
   <v type="int" name="divisions">      12       12        1 </v>
   <v name="usershift">      0.00000000       0.00000000       0.00000000 </v>
   <v name="genvec1">      0.08333333       0.00000000       0.00000000 </v>
   <v name="genvec2">      0.00000000       0.08333333       0.00000000 </v>
   <v name="genvec3">      0.00000000       0.00000000       1.00000000 </v>
   <v name="shift">      0.00000000       0.00000000       0.00000000 </v>
  </generation>
  <varray name="kpointlist" >
   <v>       0.00000000       0.00000000       0.00000000 </v>
   <v>       0.08333333       0.00000000       0.00000000 </v>
   <v>       0.16666667      -0.00000000       0.00000000 </v>
   <v>       0.25000000       0.00000000       0.00000000 </v>
   <v>       0.33333333       0.00000000       0.00000000 </v>
   <v>       0.41666667       0.00000000       0.00000000 </v>
   <v>       0.50000000       0.00000000       0.00000000 </v>
   <v>       0.08333333       0.08333333       0.00000000 </v>
   <v>       0.16666667       0.08333333       0.00000000 </v>
   <v>       0.25000000       0.08333333       0.00000000 </v>
   <v>       0.33333333       0.08333333       0.00000000 </v>
   <v>       0.41666667       0.08333333       0.00000000 </v>
   <v>       0.16666667       0.16666667       0.00000000 </v>
   <v>       0.25000000       0.16666667       0.00000000 </v>
   <v>       0.33333333       0.16666667       0.00000000 </v>
   <v>       0.41666667       0.16666667       0.00000000 </v>
   <v>       0.25000000       0.25000000       0.00000000 </v>
   <v>       0.33333333       0.25000000       0.00000000 </v>
   <v>       0.33333333       0.33333333       0.00000000 </v>
  </varray>
  <varray name="weights" >
   <v>       0.00694444 </v>
   <v>       0.04166667 </v>
   <v>       0.04166667 </v>
   <v>       0.04166667 </v>
   <v>       0.04166667 </v>
   <v>       0.04166667 </v>
   <v>       0.02083333 </v>
   <v>       0.04166667 </v>
   <v>       0.08333333 </v>
   <v>       0.08333333 </v>
   <v>       0.08333333 </v>
   <v>       0.08333333 </v>
   <v>       0.04166667 </v>
   <v>       0.08333333 </v>
   <v>       0.08333333 </v>
   <v>       0.04166667 </v>
   <v>       0.04166667 </v>
   <v>       0.08333333 </v>
   <v>       0.01388889 </v>
  </varray>
 </kpoints>
 <parameters>
  <separator name="general" >
   <i type="string" name="SYSTEM">BC3</i>
   <i type="logical" name="LCOMPAT"> F  </i>
  </separator>
  <separator name="electronic" >
   <i type="string" name="PREC">accura</i>
   <i name="ENMAX">    450.00000000</i>
   <i name="ENAUG">    644.87300000</i>
   <i name="EDIFF">      0.00000100</i>
   <i type="int" name="IALGO">    38</i>
   <i type="int" name="IWAVPR">    11</i>
   <i type="int" name="NBANDS">    24</i>
   <i name="NELECT">     30.00000000</i>
   <i type="int" name="TURBO">     0</i>
   <i type="int" name="IRESTART">     0</i>
   <i type="int" name="NREBOOT">     0</i>
   <i type="int" name="NMIN">     0</i>
   <i name="EREF">      0.00000000</i>
   <separator name="electronic smearing" >
    <i type="int" name="ISMEAR">     0</i>
    <i name="SIGMA">      0.10000000</i>
    <i name="KSPACING">      0.50000000</i>
    <i type="logical" name="KGAMMA"> T  </i>
   </separator>
   <separator name="electronic projectors" >
    <i type="logical" name="LREAL"> F  </i>
    <v name="ROPT">      0.00000000      0.00000000</v>
    <i type="int" name="LMAXPAW">  -100</i>
    <i type="int" name="LMAXMIX">     2</i>
    <i type="logical" name="NLSPLINE"> F  </i>
   </separator>
   <separator name="electronic startup" >
    <i type="int" name="ISTART">     0</i>
    <i type="int" name="ICHARG">     2</i>
    <i type="int" name="INIWAV">     1</i>
   </separator>
   <separator name="electronic spin" >
    <i type="int" name="ISPIN">     1</i>
    <i type="logical" name="LNONCOLLINEAR"> F  </i>
    <v name="MAGMOM">      1.00000000      1.00000000      1.00000000      1.00000000      1.00000000      1.00000000      1.00000000      1.00000000</v>
    <i name="NUPDOWN">     -1.00000000</i>
    <i type="logical" name="LSORBIT"> F  </i>
    <v name="SAXIS">      0.00000000      0.00000000      1.00000000</v>
    <i type="logical" name="LSPIRAL"> F  </i>
    <v name="QSPIRAL">      0.00000000      0.00000000      0.00000000</v>
    <i type="logical" name="LZEROZ"> F  </i>
   </separator>
   <separator name="electronic exchange-correlation" >
    <i type="logical" name="LASPH"> F  </i>
    <i type="logical" name="LMETAGGA"> F  </i>
   </separator>
   <separator name="electronic convergence" >
    <i type="int" name="NELM">    60</i>
    <i type="int" name="NELMDL">    -5</i>
    <i type="int" name="NELMIN">     2</i>
    <i name="ENINI">    450.00000000</i>
    <separator name="electronic convergence detail" >
     <i type="logical" name="LDIAG"> T  </i>
     <i type="logical" name="LSUBROT"> F  </i>
     <i name="WEIMIN">      0.00100000</i>
     <i name="EBREAK">      0.00000001</i>
     <i name="DEPER">      0.30000000</i>
     <i type="int" name="NRMM">     4</i>
     <i name="TIME">      0.40000000</i>
    </separator>
   </separator>
   <separator name="electronic mixer" >
    <i name="AMIX">      0.40000000</i>
    <i name="BMIX">      1.00000000</i>
    <i name="AMIN">      0.10000000</i>
    <i name="AMIX_MAG">      1.60000000</i>
    <i name="BMIX_MAG">      1.00000000</i>
    <separator name="electronic mixer details" >
     <i type="int" name="IMIX">     4</i>
     <i type="logical" name="MIXFIRST"> F  </i>
     <i type="int" name="MAXMIX">   -45</i>
     <i name="WC">    100.00000000</i>
     <i type="int" name="INIMIX">     1</i>
     <i type="int" name="MIXPRE">     1</i>
     <i type="int" name="MREMOVE">     5</i>
    </separator>
   </separator>
   <separator name="electronic dipolcorrection" >
    <i type="logical" name="LDIPOL"> F  </i>
    <i type="logical" name="LMONO"> F  </i>
    <i type="int" name="IDIPOL">     0</i>
    <i name="EPSILON">      1.00000000</i>
    <v name="DIPOL">   -100.00000000   -100.00000000   -100.00000000</v>
    <i name="EFIELD">      0.00000000</i>
   </separator>
  </separator>
  <separator name="grids" >
   <i type="int" name="NGX">    36</i>
   <i type="int" name="NGY">    36</i>
   <i type="int" name="NGZ">   108</i>
   <i type="int" name="NGXF">    72</i>
   <i type="int" name="NGYF">    72</i>
   <i type="int" name="NGZF">   216</i>
   <i type="logical" name="ADDGRID"> F  </i>
  </separator>
  <separator name="ionic" >
   <i type="int" name="NSW">   128</i>
   <i type="int" name="IBRION">     2</i>
   <i type="int" name="MDALGO">     0</i>
   <i type="int" name="ISIF">     3</i>
   <i name="PSTRESS">      0.00000000</i>
   <i name="EDIFFG">     -0.01000000</i>
   <i type="int" name="NFREE">     1</i>
   <i name="POTIM">      0.50000000</i>
   <i name="SMASS">     -3.00000000</i>
   <i name="SCALEE">      1.00000000</i>
  </separator>
  <separator name="ionic md" >
   <i name="TEBEG">      0.00010000</i>
   <i name="TEEND">      0.00010000</i>
   <i type="int" name="NBLOCK">     1</i>
   <i type="int" name="KBLOCK">   128</i>
   <i type="int" name="NPACO">   256</i>
   <i name="APACO">     16.00000000</i>
  </separator>
  <separator name="symmetry" >
   <i type="int" name="ISYM">     2</i>
   <i name="SYMPREC">      0.00001000</i>
  </separator>
  <separator name="dos" >
   <i type="int" name="LORBIT">     0</i>
   <v name="RWIGS">     -1.00000000     -1.00000000</v>
   <i type="int" name="NEDOS">   301</i>
   <i name="EMIN">     10.00000000</i>
   <i name="EMAX">    -10.00000000</i>
   <i name="EFERMI">      0.00000000</i>
  </separator>
  <separator name="writing" >
   <i type="int" name="NWRITE">     2</i>
   <i type="logical" name="LWAVE"> T  </i>
   <i type="logical" name="LDOWNSAMPLE"> F  </i>
   <i type="logical" name="LCHARG"> T  </i>
   <i type="logical" name="LPARD"> F  </i>
   <i type="logical" name="LVTOT"> F  </i>
   <i type="logical" name="LVHAR"> F  </i>
   <i type="logical" name="LELF"> F  </i>
   <i type="logical" name="LOPTICS"> F  </i>
   <v name="STM">      0.00000000      0.00000000      0.00000000      0.00000000      0.00000000      0.00000000      0.00000000</v>
  </separator>
  <separator name="performance" >
   <i type="int" name="NPAR">    12</i>
   <i type="int" name="NSIM">     4</i>
   <i type="int" name="NBLK">    -1</i>
   <i type="logical" name="LPLANE"> T  </i>
   <i type="logical" name="LSCALAPACK"> T  </i>
   <i type="logical" name="LSCAAWARE"> F  </i>
   <i type="logical" name="LSCALU"> F  </i>
   <i type="logical" name="LASYNC"> F  </i>
   <i type="logical" name="LORBITALREAL"> F  </i>
  </separator>
  <separator name="miscellaneous" >
   <i type="int" name="IDIOT">     3</i>
   <i type="int" name="ISPECIAL">     0</i>
   <i type="logical" name="LMUSIC"> F  </i>
   <v name="POMASS">     10.81100000     12.01100000</v>
   <v name="DARWINR">      0.00000000      0.00000000</v>
   <v name="DARWINV">      1.00000000      1.00000000</v>
   <i type="logical" name="LCORR"> T  </i>
  </separator>
  <i type="logical" name="GGA_COMPAT"> T  </i>
  <i type="logical" name="LBERRY"> F  </i>
  <i type="int" name="ICORELEVEL">     0</i>
  <i type="logical" name="LDAU"> F  </i>
  <i type="int" name="I_CONSTRAINED_M">     0</i>
  <separator name="electronic exchange-correlation" >
   <i type="string" name="GGA">--</i>
   <i type="int" name="VOSKOWN">     0</i>
   <i type="logical" name="LHFCALC"> F  </i>
   <i type="string" name="PRECFOCK"></i>
   <i type="logical" name="LSYMGRAD"> F  </i>
   <i type="logical" name="LHFONE"> F  </i>
   <i type="logical" name="LRHFCALC"> F  </i>
   <i type="logical" name="LTHOMAS"> F  </i>
   <i type="logical" name="LMODELHF"> F  </i>
   <i name="ENCUT4O">     -1.00000000</i>
   <i type="int" name="EXXOEP">     0</i>
   <i type="int" name="FOURORBIT">     0</i>
   <i name="AEXX">      0.00000000</i>
   <i name="HFALPHA">      0.00000000</i>
   <i name="MCALPHA">      0.00000000</i>
   <i name="ALDAX">      1.00000000</i>
   <i name="AGGAX">      1.00000000</i>
   <i name="ALDAC">      1.00000000</i>
   <i name="AGGAC">      1.00000000</i>
   <i type="int" name="NKREDX">     1</i>
   <i type="int" name="NKREDY">     1</i>
   <i type="int" name="NKREDZ">     1</i>
   <i type="logical" name="SHIFTRED"> F  </i>
   <i type="logical" name="ODDONLY"> F  </i>
   <i type="logical" name="EVENONLY"> F  </i>
   <i type="int" name="LMAXFOCK">     0</i>
   <i type="int" name="NMAXFOCKAE">     0</i>
   <i type="logical" name="LFOCKAEDFT"> F  </i>
   <i name="HFSCREEN">      0.00000000</i>
   <i name="HFSCREENC">      0.00000000</i>
   <i type="int" name="NBANDSGWLOW">     0</i>
  </separator>
  <separator name="vdW DFT" >
   <i type="logical" name="LUSE_VDW"> F  </i>
   <i name="Zab_VDW">     -0.84910000</i>
   <i name="PARAM1">      0.12340000</i>
   <i name="PARAM2">      1.00000000</i>
   <i name="PARAM3">      0.00000000</i>
  </separator>
  <separator name="model GW" >
   <i type="int" name="MODEL_GW">     0</i>
   <i name="MODEL_EPS0">     26.08876623</i>
   <i name="MODEL_ALPHA">      1.00000000</i>
  </separator>
  <separator name="linear response parameters" >
   <i type="logical" name="LEPSILON"> F  </i>
   <i type="logical" name="LRPA"> F  </i>
   <i type="logical" name="LNABLA"> F  </i>
   <i type="logical" name="LVEL"> F  </i>
   <i type="int" name="KINTER">     0</i>
   <i name="CSHIFT">      0.10000000</i>
   <i name="OMEGAMAX">     -1.00000000</i>
   <i name="DEG_THRESHOLD">      0.00200000</i>
   <i name="RTIME">     -0.10000000</i>
   <i name="WPLASMAI">      0.00000000</i>
   <v name="DFIELD">      0.00000000      0.00000000      0.00000000</v>
   <v name="WPLASMA">      0.00000000      0.00000000      0.00000000      0.00000000      0.00000000      0.00000000      0.00000000      0.00000000      0.00000000</v>
  </separator>
  <separator name="orbital magnetization" >
   <i type="logical" name="NUCIND"> F  </i>
   <v name="MAGPOS">      0.00000000      0.00000000      0.00000000</v>
   <i type="logical" name="LNICSALL"> T  </i>
   <i type="logical" name="ORBITALMAG"> F  </i>
   <i type="logical" name="LMAGBLOCH"> F  </i>
   <i type="logical" name="LCHIMAG"> F  </i>
   <i type="logical" name="LGAUGE"> T  </i>
   <i type="int" name="MAGATOM">     0</i>
   <v name="MAGDIPOL">      0.00000000      0.00000000      0.00000000</v>
   <v name="AVECCONST">      0.00000000      0.00000000      0.00000000</v>
  </separator>
  <separator name="response functions" >
   <i type="logical" name="LADDER"> F  </i>
   <i type="logical" name="LRPAFORCE"> F  </i>
   <i type="logical" name="LFXC"> F  </i>
   <i type="logical" name="LHARTREE"> T  </i>
   <i type="int" name="IBSE">     0</i>
   <v type="int" name="KPOINT">    -1     0     0     0</v>
   <i type="logical" name="LTCTE"> F  </i>
   <i type="logical" name="LTETE"> F  </i>
   <i type="logical" name="LTRIPLET"> F  </i>
   <i type="logical" name="LFXCEPS"> F  </i>
   <i type="logical" name="LFXHEG"> F  </i>
   <i type="int" name="NATURALO">     2</i>
   <i type="logical" name="L2ORDER"> F  </i>
   <i type="logical" name="LMP2LT"> F  </i>
   <i type="logical" name="LUSEW"> F  </i>
   <i name="ENCUTGW">     -2.00000000</i>
   <i name="ENCUTGWSOFT">     -2.00000000</i>
   <i name="ENCUTLF">     -1.00000000</i>
   <i type="int" name="LMAXMP2">    -1</i>
   <i name="SCISSOR">      0.00000000</i>
   <i type="int" name="NOMEGA">     0</i>
   <i type="int" name="NOMEGAR">     0</i>
   <i type="int" name="NBANDSGW">    -1</i>
   <i type="int" name="NBANDSO">    -1</i>
   <i type="int" name="NBANDSV">    -1</i>
   <i type="int" name="NELM">     1</i>
   <i type="int" name="NELMHF">     1</i>
   <i type="int" name="DIM">     3</i>
   <i type="int" name="ANTIRES">     0</i>
   <i name="OMEGAMAX">    -30.00000000</i>
   <i name="OMEGAMIN">    -30.00000000</i>
   <i name="OMEGATL">   -200.00000000</i>
   <i type="int" name="OMEGAGRID">   140</i>
   <i name="CSHIFT">     -0.10000000</i>
   <i type="logical" name="SELFENERGY"> F  </i>
   <i type="logical" name="LSPECTRAL"> F  </i>
   <i type="logical" name="LSPECTRALGW"> F  </i>
   <i type="logical" name="LSINGLES"> F  </i>
   <i type="logical" name="LFERMIGW"> F  </i>
   <i type="logical" name="ODDONLYGW"> F  </i>
   <i type="logical" name="EVENONLYGW"> F  </i>
   <i type="int" name="NKREDLFX">     1</i>
   <i type="int" name="NKREDLFY">     1</i>
   <i type="int" name="NKREDLFZ">     1</i>
   <i type="int" name="MAXMEM">  2800</i>
   <i type="int" name="TELESCOPE">     0</i>
   <i type="int" name="TAUPAR">     1</i>
   <i type="int" name="OMEGAPAR">    -1</i>
   <i name="LAMBDA">      1.00000000</i>
  </separator>
  <separator name="External order field" >
   <i name="OFIELD_KAPPA">      0.00000000</i>
   <v name="OFIELD_K">      0.00000000      0.00000000      0.00000000</v>
   <i name="OFIELD_Q6_NEAR">      0.00000000</i>
   <i name="OFIELD_Q6_FAR">      0.00000000</i>
   <i name="OFIELD_A">      0.00000000</i>
  </separator>
 </parameters>
 <atominfo>
  <atoms>       8 </atoms>
  <types>       2 </types>
  <array name="atoms" >
   <dimension dim="1">ion</dimension>
   <field type="string">element</field>
   <field type="int">atomtype</field>
   <set>
    <rc><c>B </c><c>   1</c></rc>
    <rc><c>B </c><c>   1</c></rc>
    <rc><c>C </c><c>   2</c></rc>
    <rc><c>C </c><c>   2</c></rc>
    <rc><c>C </c><c>   2</c></rc>
    <rc><c>C </c><c>   2</c></rc>
    <rc><c>C </c><c>   2</c></rc>
    <rc><c>C </c><c>   2</c></rc>
   </set>
  </array>
  <array name="atomtypes" >
   <dimension dim="1">type</dimension>
   <field type="int">atomspertype</field>
   <field type="string">element</field>
   <field>mass</field>
   <field>valence</field>
   <field type="string">pseudopotential</field>
   <set>
    <rc><c>   2</c><c>B </c><c>     10.81100000</c><c>      3.00000000</c><c>  PAW_PBE B 06Sep2000                   </c></rc>
    <rc><c>   6</c><c>C </c><c>     12.01100000</c><c>      4.00000000</c><c>  PAW_PBE C 08Apr2002                   </c></rc>
   </set>
  </array>
 </atominfo>
 <structure name="initialpos" >
  <crystal>
   <varray name="basis" >
    <v>       4.48142200       2.58735000       0.00000000 </v>
    <v>      -4.48142200       2.58735000       0.00000000 </v>
    <v>       0.00000000       0.00000000      15.00000000 </v>
   </varray>
   <i name="volume">    347.85021635 </i>
   <varray name="rec_basis" >
    <v>       0.11157173       0.19324792       0.00000000 </v>
    <v>      -0.11157173       0.19324792       0.00000000 </v>
    <v>       0.00000000       0.00000000       0.06666667 </v>
   </varray>
  </crystal>
  <varray name="positions" >
   <v>       0.33333300       0.66666600       0.25000000 </v>
   <v>       0.66666600       0.33333300       0.25000000 </v>
   <v>       0.16666600       0.33333300       0.25000000 </v>
   <v>       0.33333300       0.16666600       0.25000000 </v>
   <v>       0.16666600       0.83333300       0.25000000 </v>
   <v>       0.83333300       0.16666600       0.25000000 </v>
   <v>       0.66666600       0.83333300       0.25000000 </v>
   <v>       0.83333300       0.66666600       0.25000000 </v>
  </varray>
 </structure>
 <calculation>
  <scstep>
   <time name="dav">    2.17    2.17</time>
   <time name="total">    2.30    2.30</time>
   <energy>
    <i name="alphaZ">     14.58243785 </i>
    <i name="ewald">   2579.36867383 </i>
    <i name="hartreedc">  -3341.51811835 </i>
    <i name="XCdc">     90.82341893 </i>
    <i name="pawpsdc">    738.13200929 </i>
    <i name="pawaedc">   -739.83780425 </i>
    <i name="eentropy">     -0.00448709 </i>
    <i name="bandstr">   -152.78317701 </i>
    <i name="atom">   1025.20389953 </i>
    <i name="e_fr_energy">    213.96685272 </i>
    <i name="e_wo_entrp">    213.97133981 </i>
    <i name="e_0_energy">    213.96909627 </i>
   </energy>
  </scstep>
  <scstep>
   <time name="dav">    2.92    2.92</time>
   <time name="total">    2.92    2.92</time>
   <energy>
    <i name="e_fr_energy">    -41.08035044 </i>
    <i name="e_wo_entrp">    -41.06947639 </i>
    <i name="e_0_energy">    -41.07491341 </i>
   </energy>
  </scstep>
  <scstep>
   <time name="dav">    2.71    2.71</time>
   <time name="total">    2.71    2.71</time>
   <energy>
    <i name="e_fr_energy">    -71.46287432 </i>
    <i name="e_wo_entrp">    -71.46287432 </i>
    <i name="e_0_energy">    -71.46287432 </i>
   </energy>
  </scstep>
  <scstep>
   <time name="dav">    2.70    2.70</time>
   <time name="total">    2.70    2.70</time>
   <energy>
    <i name="e_fr_energy">    -72.11658781 </i>
    <i name="e_wo_entrp">    -72.11658780 </i>
    <i name="e_0_energy">    -72.11658780 </i>
   </energy>
  </scstep>
  <scstep>
   <time name="dav">    2.76    2.76</time>
   <time name="total">    2.96    2.96</time>
   <energy>
    <i name="e_fr_energy">    -72.13833697 </i>
    <i name="e_wo_entrp">    -72.13833696 </i>
    <i name="e_0_energy">    -72.13833696 </i>
   </energy>
  </scstep>
  <scstep>
   <time name="dav">    2.64    2.65</time>
   <time name="total">    2.94    2.94</time>
   <energy>
    <i name="e_fr_energy">    -68.07604341 </i>
    <i name="e_wo_entrp">    -68.07604339 </i>
    <i name="e_0_energy">    -68.07604340 </i>
   </energy>
  </scstep>
  <scstep>
   <time name="dav">    2.88    2.88</time>
   <time name="total">    3.18    3.19</time>
   <energy>
    <i name="e_fr_energy">    -66.34824054 </i>
    <i name="e_wo_entrp">    -66.34819459 </i>
    <i name="e_0_energy">    -66.34821756 </i>
   </energy>
  </scstep>
  <scstep>
   <time name="dav">    2.87    2.87</time>
   <time name="total">    3.17    3.17</time>
   <energy>
    <i name="e_fr_energy">    -66.31163713 </i>
    <i name="e_wo_entrp">    -66.31158915 </i>
    <i name="e_0_energy">    -66.31161314 </i>
   </energy>
  </scstep>
  <scstep>
   <time name="dav">    2.60    2.61</time>
   <time name="total">    2.92    2.92</time>
   <energy>
    <i name="e_fr_energy">    -66.30203037 </i>
    <i name="e_wo_entrp">    -66.30196217 </i>
    <i name="e_0_energy">    -66.30199627 </i>
   </energy>
  </scstep>
  <scstep>
   <time name="dav">    2.41    2.42</time>
   <time name="total">    2.72    2.72</time>
   <energy>
    <i name="e_fr_energy">    -66.29359367 </i>
    <i name="e_wo_entrp">    -66.29348332 </i>
    <i name="e_0_energy">    -66.29353850 </i>
   </energy>
  </scstep>
  <scstep>
   <time name="dav">    2.29    2.30</time>
   <time name="total">    2.60    2.61</time>
   <energy>
    <i name="e_fr_energy">    -66.29186157 </i>
    <i name="e_wo_entrp">    -66.29172488 </i>
    <i name="e_0_energy">    -66.29179323 </i>
   </energy>
  </scstep>
  <scstep>
   <time name="dav">    2.19    2.19</time>
   <time name="total">    2.49    2.50</time>
   <energy>
    <i name="e_fr_energy">    -66.29220839 </i>
    <i name="e_wo_entrp">    -66.29206732 </i>
    <i name="e_0_energy">    -66.29213785 </i>
   </energy>
  </scstep>
  <scstep>
   <time name="dav">    2.51    2.51</time>
   <time name="total">    2.82    2.82</time>
   <energy>
    <i name="e_fr_energy">    -66.29418198 </i>
    <i name="e_wo_entrp">    -66.29404604 </i>
    <i name="e_0_energy">    -66.29411401 </i>
   </energy>
  </scstep>
  <scstep>
   <time name="dav">    2.27    2.27</time>
   <time name="total">    2.57    2.57</time>
   <energy>
    <i name="e_fr_energy">    -66.29665821 </i>
    <i name="e_wo_entrp">    -66.29652432 </i>
    <i name="e_0_energy">    -66.29659126 </i>
   </energy>
  </scstep>
  <scstep>
   <time name="dav">    2.47    2.47</time>
   <time name="total">    2.77    2.77</time>
   <energy>
    <i name="e_fr_energy">    -66.29723761 </i>
    <i name="e_wo_entrp">    -66.29710156 </i>
    <i name="e_0_energy">    -66.29716958 </i>
   </energy>
  </scstep>
  <scstep>
   <time name="dav">    2.22    2.22</time>
   <time name="total">    2.52    2.52</time>
   <energy>
    <i name="e_fr_energy">    -66.29753063 </i>
    <i name="e_wo_entrp">    -66.29739496 </i>
    <i name="e_0_energy">    -66.29746279 </i>
   </energy>
  </scstep>
  <scstep>
   <time name="dav">    2.48    2.48</time>
   <time name="total">    2.78    2.78</time>
   <energy>
    <i name="e_fr_energy">    -66.29755587 </i>
    <i name="e_wo_entrp">    -66.29742012 </i>
    <i name="e_0_energy">    -66.29748800 </i>
   </energy>
  </scstep>
  <scstep>
   <time name="dav">    1.85    1.85</time>
   <time name="total">    2.16    2.16</time>
   <energy>
    <i name="e_fr_energy">    -66.29756911 </i>
    <i name="e_wo_entrp">    -66.29743350 </i>
    <i name="e_0_energy">    -66.29750130 </i>
   </energy>
  </scstep>
  <scstep>
   <time name="dav">    2.16    2.16</time>
   <time name="total">    2.27    2.27</time>
   <energy>
    <i name="alphaZ">     14.58243785 </i>
    <i name="ewald">   2579.36867383 </i>
    <i name="hartreedc">  -3473.13047836 </i>
    <i name="XCdc">     95.51927360 </i>
    <i name="pawpsdc">   2846.55682924 </i>
    <i name="pawaedc">  -2849.07031704 </i>
    <i name="eentropy">     -0.00013564 </i>
    <i name="bandstr">   -305.32775282 </i>
    <i name="atom">   1025.20389953 </i>
    <i name="e_fr_energy">    -66.29756983 </i>
    <i name="e_wo_entrp">    -66.29743419 </i>
    <i name="e_0_energy">    -66.29750201 </i>
   </energy>
  </scstep>
  <structure>
   <crystal>
    <varray name="basis" >
     <v>       4.48142200       2.58735000       0.00000000 </v>
     <v>      -4.48142200       2.58735000       0.00000000 </v>
     <v>       0.00000000       0.00000000      15.00000000 </v>
    </varray>
    <i name="volume">    347.85021635 </i>
    <varray name="rec_basis" >
     <v>       0.11157173       0.19324792       0.00000000 </v>
     <v>      -0.11157173       0.19324792       0.00000000 </v>
     <v>       0.00000000       0.00000000       0.06666667 </v>
    </varray>
   </crystal>
   <varray name="positions" >
    <v>       0.33333300       0.66666600       0.25000000 </v>
    <v>       0.66666600       0.33333300       0.25000000 </v>
    <v>       0.16666600       0.33333300       0.25000000 </v>
    <v>       0.33333300       0.16666600       0.25000000 </v>
    <v>       0.16666600       0.83333300       0.25000000 </v>
    <v>       0.83333300       0.16666600       0.25000000 </v>
    <v>       0.66666600       0.83333300       0.25000000 </v>
    <v>       0.83333300       0.66666600       0.25000000 </v>
   </varray>
  </structure>
  <varray name="forces" >
   <v>       0.00000000       0.00000000      -0.00000000 </v>
   <v>       0.00000000       0.00000000      -0.00000000 </v>
   <v>       2.14483056      -3.71495522      -0.00000000 </v>
   <v>      -2.14483056      -3.71495522       0.00000000 </v>
   <v>      -4.28966113       0.00000000       0.00000000 </v>
   <v>       4.28966113       0.00000000      -0.00000000 </v>
   <v>       2.14483056       3.71495522       0.00000000 </v>
   <v>      -2.14483056       3.71495522      -0.00000000 </v>
  </varray>
  <varray name="stress" >
   <v>      -7.14991220       0.00000000       0.00000000 </v>
   <v>       0.00000000      -7.14991111       0.00000000 </v>
   <v>      -0.00000000      -0.00000000      -0.87034419 </v>
  </varray>
  <energy>
   <i name="e_fr_energy">    -66.29756983 </i>
   <i name="e_wo_entrp">    -66.29750201 </i>
   <i name="e_0_energy">     -0.00013564 </i>
  </energy>
  <time name="totalsc">   55.29   55.55</time>
 </calculation>
 <calculation>
  <scstep>
   <time name="dav">    2.17    2.17</time>
   <time name="total">    2.48    2.49</time>
   <energy>
    <i name="alphaZ">     14.87628454 </i>
    <i name="ewald">   2730.00930730 </i>
    <i name="hartreedc">  -3589.55312237 </i>
    <i name="XCdc">     97.35528276 </i>
    <i name="pawpsdc">   2846.54939950 </i>
    <i name="pawaedc">  -2849.06288777 </i>
    <i name="eentropy">     -0.00000000 </i>
    <i name="bandstr">   -339.21047622 </i>
    <i name="atom">   1025.20389953 </i>
    <i name="e_fr_energy">    -63.83231272 </i>
    <i name="e_wo_entrp">    -63.83231272 </i>
    <i name="e_0_energy">    -63.83231272 </i>
   </energy>
  </scstep>
  <scstep>
   <time name="dav">    2.76    2.76</time>
   <time name="total">    3.05    3.06</time>
   <energy>
    <i name="e_fr_energy">    -63.27732155 </i>
    <i name="e_wo_entrp">    -63.27732155 </i>
    <i name="e_0_energy">    -63.27732155 </i>
   </energy>
  </scstep>
  <scstep>
   <time name="dav">    2.41    2.41</time>
   <time name="total">    2.71    2.71</time>
   <energy>
    <i name="e_fr_energy">    -62.98214967 </i>
    <i name="e_wo_entrp">    -62.98214967 </i>
    <i name="e_0_energy">    -62.98214967 </i>
   </energy>
  </scstep>
  <scstep>
   <time name="dav">    2.61    2.61</time>
   <time name="total">    2.92    2.92</time>
   <energy>
    <i name="e_fr_energy">    -62.96812556 </i>
    <i name="e_wo_entrp">    -62.96812556 </i>
    <i name="e_0_energy">    -62.96812556 </i>
   </energy>
  </scstep>
  <scstep>
   <time name="dav">    2.52    2.52</time>
   <time name="total">    2.82    2.82</time>
   <energy>
    <i name="e_fr_energy">    -62.96391510 </i>
    <i name="e_wo_entrp">    -62.96391510 </i>
    <i name="e_0_energy">    -62.96391510 </i>
   </energy>
  </scstep>
  <scstep>
   <time name="dav">    2.21    2.22</time>
   <time name="total">    2.52    2.52</time>
   <energy>
    <i name="e_fr_energy">    -62.96411105 </i>
    <i name="e_wo_entrp">    -62.96411105 </i>
    <i name="e_0_energy">    -62.96411105 </i>
   </energy>
  </scstep>
  <scstep>
   <time name="dav">    2.20    2.20</time>
   <time name="total">    2.51    2.51</time>
   <energy>
    <i name="e_fr_energy">    -62.96424057 </i>
    <i name="e_wo_entrp">    -62.96424057 </i>
    <i name="e_0_energy">    -62.96424057 </i>
   </energy>
  </scstep>
  <scstep>
   <time name="dav">    2.39    2.39</time>
   <time name="total">    2.71    2.71</time>
   <energy>
    <i name="e_fr_energy">    -62.96432646 </i>
    <i name="e_wo_entrp">    -62.96432646 </i>
    <i name="e_0_energy">    -62.96432646 </i>
   </energy>
  </scstep>
  <scstep>
   <time name="dav">    2.20    2.20</time>
   <time name="total">    2.50    2.50</time>
   <energy>
    <i name="e_fr_energy">    -62.96449207 </i>
    <i name="e_wo_entrp">    -62.96449207 </i>
    <i name="e_0_energy">    -62.96449207 </i>
   </energy>
  </scstep>
  <scstep>
   <time name="dav">    2.43    2.43</time>
   <time name="total">    2.74    2.74</time>
   <energy>
    <i name="e_fr_energy">    -62.96454573 </i>
    <i name="e_wo_entrp">    -62.96454573 </i>
    <i name="e_0_energy">    -62.96454573 </i>
   </energy>
  </scstep>
  <scstep>
   <time name="dav">    2.47    2.47</time>
   <time name="total">    2.78    2.78</time>
   <energy>
    <i name="e_fr_energy">    -62.96458061 </i>
    <i name="e_wo_entrp">    -62.96458061 </i>
    <i name="e_0_energy">    -62.96458061 </i>
   </energy>
  </scstep>
  <scstep>
   <time name="dav">    2.33    2.33</time>
   <time name="total">    2.64    2.64</time>
   <energy>
    <i name="e_fr_energy">    -62.96464568 </i>
    <i name="e_wo_entrp">    -62.96464568 </i>
    <i name="e_0_energy">    -62.96464568 </i>
   </energy>
  </scstep>
  <scstep>
   <time name="dav">    2.08    2.08</time>
   <time name="total">    2.38    2.38</time>
   <energy>
    <i name="e_fr_energy">    -62.96465810 </i>
    <i name="e_wo_entrp">    -62.96465810 </i>
    <i name="e_0_energy">    -62.96465810 </i>
   </energy>
  </scstep>
  <scstep>
   <time name="dav">    2.12    2.12</time>
   <time name="total">    2.42    2.42</time>
   <energy>
    <i name="e_fr_energy">    -62.96467081 </i>
    <i name="e_wo_entrp">    -62.96467081 </i>
    <i name="e_0_energy">    -62.96467081 </i>
   </energy>
  </scstep>
  <scstep>
   <time name="dav">    1.88    1.88</time>
   <time name="total">    2.18    2.18</time>
   <energy>
    <i name="e_fr_energy">    -62.96467225 </i>
    <i name="e_wo_entrp">    -62.96467225 </i>
    <i name="e_0_energy">    -62.96467225 </i>
   </energy>
  </scstep>
  <scstep>
   <time name="dav">    1.86    1.86</time>
   <time name="total">    1.97    1.97</time>
   <energy>
    <i name="alphaZ">     14.87628454 </i>
    <i name="ewald">   2730.00930730 </i>
    <i name="hartreedc">  -3621.30899050 </i>
    <i name="XCdc">     98.44149356 </i>
    <i name="pawpsdc">   3570.05023356 </i>
    <i name="pawaedc">  -3572.85200685 </i>
    <i name="eentropy">     -0.00000000 </i>
    <i name="bandstr">   -307.38489385 </i>
    <i name="atom">   1025.20389953 </i>
    <i name="e_fr_energy">    -62.96467271 </i>
    <i name="e_wo_entrp">    -62.96467271 </i>
    <i name="e_0_energy">    -62.96467271 </i>
   </energy>
  </scstep>
  <structure>
   <crystal>
    <varray name="basis" >
     <v>       4.43947128       2.56312974       0.00000000 </v>
     <v>      -4.43947128       2.56312974      -0.00000000 </v>
     <v>      -0.00000000      -0.00000000      14.98290752 </v>
    </varray>
    <i name="volume">    340.97923761 </i>
    <varray name="rec_basis" >
     <v>       0.11262602       0.19507401       0.00000000 </v>
     <v>      -0.11262602       0.19507401       0.00000000 </v>
     <v>      -0.00000000      -0.00000000       0.06674272 </v>
    </varray>
   </crystal>
   <varray name="positions" >
    <v>       0.33333300       0.66666600       0.25000000 </v>
    <v>       0.66666600       0.33333300       0.25000000 </v>
    <v>       0.14357683       0.28715466       0.25000000 </v>
    <v>       0.28715466       0.14357683       0.25000000 </v>
    <v>       0.14357683       0.85642217       0.25000000 </v>
    <v>       0.85642217       0.14357683       0.25000000 </v>
    <v>       0.71284434       0.85642217       0.25000000 </v>
    <v>       0.85642217       0.71284434       0.25000000 </v>
   </varray>
  </structure>
  <varray name="forces" >
   <v>       0.00000000      -0.00000000       0.00000000 </v>
   <v>       0.00000000      -0.00000000       0.00000000 </v>
   <v>      -5.47889943       9.48973147       0.00000000 </v>
   <v>       5.47889943       9.48973147      -0.00000000 </v>
   <v>      10.95779887      -0.00000000      -0.00000000 </v>
   <v>     -10.95779887      -0.00000000      -0.00000000 </v>
   <v>      -5.47889943      -9.48973147       0.00000000 </v>
   <v>       5.47889943      -9.48973147       0.00000000 </v>
  </varray>
  <varray name="stress" >
   <v>     117.25005787       0.00000000       0.00000000 </v>
   <v>       0.00000000     117.25004026       0.00000000 </v>
   <v>       0.00000000       0.00000000      -0.74522482 </v>
  </varray>
  <energy>
   <i name="e_fr_energy">    -62.96467271 </i>
   <i name="e_wo_entrp">    -62.96467271 </i>
   <i name="e_0_energy">     -0.00000000 </i>
  </energy>
  <time name="totalsc">   43.75   43.82</time>
 </calculation>
 <calculation>
  <scstep>
   <time name="dav">    2.15    2.16</time>
   <time name="total">    2.46    2.46</time>
   <energy>
    <i name="alphaZ">     14.68358438 </i>
    <i name="ewald">   2616.75428732 </i>
    <i name="hartreedc">  -3529.60540193 </i>
    <i name="XCdc">     96.83907315 </i>
    <i name="pawpsdc">   3570.04849242 </i>
    <i name="pawaedc">  -3572.85026646 </i>
    <i name="eentropy">     -0.00307543 </i>
    <i name="bandstr">   -288.83470189 </i>
    <i name="atom">   1025.20389953 </i>
    <i name="e_fr_energy">    -67.76410891 </i>
    <i name="e_wo_entrp">    -67.76103348 </i>
    <i name="e_0_energy">    -67.76257120 </i>
   </energy>
  </scstep>
  <scstep>
   <time name="dav">    2.70    2.70</time>
   <time name="total">    3.00    3.00</time>
   <energy>
    <i name="e_fr_energy">    -67.30894011 </i>
    <i name="e_wo_entrp">    -67.30893757 </i>
    <i name="e_0_energy">    -67.30893884 </i>
   </energy>
  </scstep>
  <scstep>
   <time name="dav">    2.46    2.46</time>
   <time name="total">    2.75    2.75</time>
   <energy>
    <i name="e_fr_energy">    -67.23136440 </i>
    <i name="e_wo_entrp">    -67.23136429 </i>
    <i name="e_0_energy">    -67.23136435 </i>
   </energy>
  </scstep>
  <scstep>
   <time name="dav">    2.61    2.61</time>
   <time name="total">    2.91    2.91</time>
   <energy>
    <i name="e_fr_energy">    -67.22881971 </i>
    <i name="e_wo_entrp">    -67.22881931 </i>
    <i name="e_0_energy">    -67.22881951 </i>
   </energy>
  </scstep>
  <scstep>
   <time name="dav">    2.55    2.55</time>
   <time name="total">    2.85    2.85</time>
   <energy>
    <i name="e_fr_energy">    -67.22582985 </i>
    <i name="e_wo_entrp">    -67.22582967 </i>
    <i name="e_0_energy">    -67.22582976 </i>
   </energy>
  </scstep>
  <scstep>
   <time name="dav">    2.57    2.57</time>
   <time name="total">    2.87    2.87</time>
   <energy>
    <i name="e_fr_energy">    -67.22582629 </i>
    <i name="e_wo_entrp">    -67.22582613 </i>
    <i name="e_0_energy">    -67.22582621 </i>
   </energy>
  </scstep>
  <scstep>
   <time name="dav">    2.61    2.61</time>
   <time name="total">    2.91    2.91</time>
   <energy>
    <i name="e_fr_energy">    -67.22598054 </i>
    <i name="e_wo_entrp">    -67.22598039 </i>
    <i name="e_0_energy">    -67.22598047 </i>
   </energy>
  </scstep>
  <scstep>
   <time name="dav">    2.50    2.50</time>
   <time name="total">    2.79    2.80</time>
   <energy>
    <i name="e_fr_energy">    -67.22603987 </i>
    <i name="e_wo_entrp">    -67.22603971 </i>
    <i name="e_0_energy">    -67.22603979 </i>
   </energy>
  </scstep>
  <scstep>
   <time name="dav">    2.29    2.29</time>
   <time name="total">    2.59    2.59</time>
   <energy>
    <i name="e_fr_energy">    -67.22617740 </i>
    <i name="e_wo_entrp">    -67.22617724 </i>
    <i name="e_0_energy">    -67.22617732 </i>
   </energy>
  </scstep>
  <scstep>
   <time name="dav">    2.46    2.46</time>
   <time name="total">    2.75    2.75</time>
   <energy>
    <i name="e_fr_energy">    -67.22620894 </i>
    <i name="e_wo_entrp">    -67.22620878 </i>
    <i name="e_0_energy">    -67.22620886 </i>
   </energy>
  </scstep>
  <scstep>
   <time name="dav">    2.35    2.35</time>
   <time name="total">    2.65    2.66</time>
   <energy>
    <i name="e_fr_energy">    -67.22621465 </i>
    <i name="e_wo_entrp">    -67.22621449 </i>
    <i name="e_0_energy">    -67.22621457 </i>
   </energy>
  </scstep>
  <scstep>
   <time name="dav">    2.39    2.39</time>
   <time name="total">    2.69    2.69</time>
   <energy>
    <i name="e_fr_energy">    -67.22621329 </i>
    <i name="e_wo_entrp">    -67.22621313 </i>
    <i name="e_0_energy">    -67.22621321 </i>
   </energy>
  </scstep>
  <scstep>
   <time name="dav">    2.14    2.14</time>
   <time name="total">    2.25    2.25</time>
   <energy>
    <i name="alphaZ">     14.68358438 </i>
    <i name="ewald">   2616.75428732 </i>
    <i name="hartreedc">  -3512.36175696 </i>
    <i name="XCdc">     96.21271539 </i>
    <i name="pawpsdc">   2933.48703522 </i>
    <i name="pawaedc">  -2936.03285961 </i>
    <i name="eentropy">     -0.00000016 </i>
    <i name="bandstr">   -305.17311907 </i>
    <i name="atom">   1025.20389953 </i>
    <i name="e_fr_energy">    -67.22621396 </i>
    <i name="e_wo_entrp">    -67.22621381 </i>
    <i name="e_0_energy">    -67.22621389 </i>
   </energy>
  </scstep>
  <structure>
   <crystal>
    <varray name="basis" >
     <v>       4.46684482       2.57893386       0.00000000 </v>
     <v>      -4.46684482       2.57893386      -0.00000000 </v>
     <v>      -0.00000000      -0.00000000      14.99406065 </v>
    </varray>
    <i name="volume">    345.45408178 </i>
    <varray name="rec_basis" >
     <v>       0.11193583       0.19387857       0.00000000 </v>
     <v>      -0.11193583       0.19387857       0.00000000 </v>
     <v>      -0.00000000      -0.00000000       0.06669307 </v>
    </varray>
   </crystal>
   <varray name="positions" >
    <v>       0.33333300       0.66666600       0.25000000 </v>
    <v>       0.66666600       0.33333300       0.25000000 </v>
    <v>       0.15878526       0.31757153       0.25000000 </v>
    <v>       0.31757153       0.15878526       0.25000000 </v>
    <v>       0.15878526       0.84121374       0.25000000 </v>
    <v>       0.84121374       0.15878526       0.25000000 </v>
    <v>       0.68242747       0.84121374       0.25000000 </v>
    <v>       0.84121374       0.68242747       0.25000000 </v>
   </varray>
  </structure>
  <varray name="forces" >
   <v>      -0.00000000       0.00000000       0.00000000 </v>
   <v>      -0.00000000      -0.00000000       0.00000000 </v>
   <v>      -0.00571324       0.00989561       0.00000000 </v>
   <v>       0.00571324       0.00989561       0.00000000 </v>
   <v>       0.01142647      -0.00000000       0.00000000 </v>
   <v>      -0.01142647       0.00000000       0.00000000 </v>
   <v>      -0.00571324      -0.00989561       0.00000000 </v>
   <v>       0.00571324      -0.00989561      -0.00000000 </v>
  </varray>
  <varray name="stress" >
   <v>       6.54066615       0.00000000       0.00000000 </v>
   <v>       0.00000000       6.54066515       0.00000000 </v>
   <v>       0.00000000       0.00000000      -0.81532688 </v>
  </varray>
  <energy>
   <i name="e_fr_energy">    -67.22621396 </i>
   <i name="e_wo_entrp">    -67.22621389 </i>
   <i name="e_0_energy">     -0.00000016 </i>
  </energy>
  <time name="totalsc">   37.88   37.90</time>
 </calculation>
 <calculation>
  <scstep>
   <time name="dav">    2.23    2.23</time>
   <time name="total">    2.54    2.54</time>
   <energy>
    <i name="alphaZ">     14.68282350 </i>
    <i name="ewald">   2616.41762252 </i>
    <i name="hartreedc">  -3512.06830491 </i>
    <i name="XCdc">     96.20826483 </i>
    <i name="pawpsdc">   2933.70095078 </i>
    <i name="pawaedc">  -2936.24677524 </i>
    <i name="eentropy">     -0.00000018 </i>
    <i name="bandstr">   -305.12475348 </i>
    <i name="atom">   1025.20389953 </i>
    <i name="e_fr_energy">    -67.22627264 </i>
    <i name="e_wo_entrp">    -67.22627246 </i>
    <i name="e_0_energy">    -67.22627255 </i>
   </energy>
  </scstep>
  <scstep>
   <time name="dav">    2.29    2.29</time>
   <time name="total">    2.60    2.60</time>
   <energy>
    <i name="e_fr_energy">    -67.22626528 </i>
    <i name="e_wo_entrp">    -67.22626511 </i>
    <i name="e_0_energy">    -67.22626520 </i>
   </energy>
  </scstep>
  <scstep>
   <time name="dav">    2.71    2.71</time>
   <time name="total">    3.01    3.01</time>
   <energy>
    <i name="e_fr_energy">    -67.22626437 </i>
    <i name="e_wo_entrp">    -67.22626420 </i>
    <i name="e_0_energy">    -67.22626429 </i>
   </energy>
  </scstep>
  <scstep>
   <time name="dav">    2.47    2.47</time>
   <time name="total">    2.58    2.58</time>
   <energy>
    <i name="alphaZ">     14.68282350 </i>
    <i name="ewald">   2616.41762252 </i>
    <i name="hartreedc">  -3512.01872228 </i>
    <i name="XCdc">     96.20629303 </i>
    <i name="pawpsdc">   2932.47710457 </i>
    <i name="pawaedc">  -2935.02239269 </i>
    <i name="eentropy">     -0.00000017 </i>
    <i name="bandstr">   -305.17289252 </i>
    <i name="atom">   1025.20389953 </i>
    <i name="e_fr_energy">    -67.22626452 </i>
    <i name="e_wo_entrp">    -67.22626435 </i>
    <i name="e_0_energy">    -67.22626444 </i>
   </energy>
  </scstep>
  <structure>
   <crystal>
    <varray name="basis" >
     <v>       4.46695393       2.57899686       0.00000000 </v>
     <v>      -4.46695393       2.57899686      -0.00000000 </v>
     <v>      -0.00000000      -0.00000000      14.99410510 </v>
    </varray>
    <i name="volume">    345.47198358 </i>
    <varray name="rec_basis" >
     <v>       0.11193310       0.19387383       0.00000000 </v>
     <v>      -0.11193310       0.19387383       0.00000000 </v>
     <v>      -0.00000000      -0.00000000       0.06669288 </v>
    </varray>
   </crystal>
   <varray name="positions" >
    <v>       0.33333300       0.66666600       0.25000000 </v>
    <v>       0.66666600       0.33333300       0.25000000 </v>
    <v>       0.15884551       0.31769203       0.25000000 </v>
    <v>       0.31769203       0.15884551       0.25000000 </v>
    <v>       0.15884551       0.84115349       0.25000000 </v>
    <v>       0.84115349       0.15884551       0.25000000 </v>
    <v>       0.68230697       0.84115349       0.25000000 </v>
    <v>       0.84115349       0.68230697       0.25000000 </v>
   </varray>
  </structure>
  <varray name="forces" >
   <v>       0.00000000       0.00000000       0.00000000 </v>
   <v>       0.00000000       0.00000000       0.00000000 </v>
   <v>       0.01177470      -0.02039438       0.00000000 </v>
   <v>      -0.01177470      -0.02039438      -0.00000000 </v>
   <v>      -0.02354941       0.00000000       0.00000000 </v>
   <v>       0.02354941       0.00000000      -0.00000000 </v>
   <v>       0.01177470       0.02039438       0.00000000 </v>
   <v>      -0.01177470       0.02039438      -0.00000000 </v>
  </varray>
  <varray name="stress" >
   <v>       6.33468119       0.00000000       0.00000000 </v>
   <v>       0.00000000       6.33468023       0.00000000 </v>
   <v>      -0.00000000       0.00000000      -0.81702011 </v>
  </varray>
  <energy>
   <i name="e_fr_energy">    -67.22626452 </i>
   <i name="e_wo_entrp">    -67.22626444 </i>
   <i name="e_0_energy">     -0.00000017 </i>
  </energy>
  <time name="totalsc">   13.13   13.17</time>
 </calculation>
 <calculation>
  <scstep>
   <time name="dav">    2.38    2.39</time>
   <time name="total">    2.69    2.70</time>
   <energy>
    <i name="alphaZ">     14.48912269 </i>
    <i name="ewald">   2563.36186917 </i>
    <i name="hartreedc">  -3460.57541422 </i>
    <i name="XCdc">     95.80258804 </i>
    <i name="pawpsdc">   2932.39477773 </i>
    <i name="pawaedc">  -2934.94005052 </i>
    <i name="eentropy">     -0.00000005 </i>
    <i name="bandstr">   -302.96486173 </i>
    <i name="atom">   1025.20389953 </i>
    <i name="e_fr_energy">    -67.22806936 </i>
    <i name="e_wo_entrp">    -67.22806931 </i>
    <i name="e_0_energy">    -67.22806933 </i>
   </energy>
  </scstep>
  <scstep>
   <time name="dav">    2.31    2.31</time>
   <time name="total">    2.62    2.62</time>
   <energy>
    <i name="e_fr_energy">    -67.22429969 </i>
    <i name="e_wo_entrp">    -67.22429964 </i>
    <i name="e_0_energy">    -67.22429966 </i>
   </energy>
  </scstep>
  <scstep>
   <time name="dav">    2.69    2.69</time>
   <time name="total">    2.99    3.00</time>
   <energy>
    <i name="e_fr_energy">    -67.22240143 </i>
    <i name="e_wo_entrp">    -67.22240140 </i>
    <i name="e_0_energy">    -67.22240142 </i>
   </energy>
  </scstep>
  <scstep>
   <time name="dav">    2.53    2.54</time>
   <time name="total">    2.83    2.83</time>
   <energy>
    <i name="e_fr_energy">    -67.22228636 </i>
    <i name="e_wo_entrp">    -67.22228634 </i>
    <i name="e_0_energy">    -67.22228635 </i>
   </energy>
  </scstep>
  <scstep>
   <time name="dav">    2.49    2.50</time>
   <time name="total">    2.78    2.79</time>
   <energy>
    <i name="e_fr_energy">    -67.22228397 </i>
    <i name="e_wo_entrp">    -67.22228394 </i>
    <i name="e_0_energy">    -67.22228395 </i>
   </energy>
  </scstep>
  <scstep>
   <time name="dav">    2.29    2.29</time>
   <time name="total">    2.59    2.59</time>
   <energy>
    <i name="e_fr_energy">    -67.22234091 </i>
    <i name="e_wo_entrp">    -67.22234088 </i>
    <i name="e_0_energy">    -67.22234090 </i>
   </energy>
  </scstep>
  <scstep>
   <time name="dav">    2.31    2.31</time>
   <time name="total">    2.61    2.61</time>
   <energy>
    <i name="e_fr_energy">    -67.22239848 </i>
    <i name="e_wo_entrp">    -67.22239845 </i>
    <i name="e_0_energy">    -67.22239846 </i>
   </energy>
  </scstep>
  <scstep>
   <time name="dav">    2.37    2.38</time>
   <time name="total">    2.68    2.68</time>
   <energy>
    <i name="e_fr_energy">    -67.22243591 </i>
    <i name="e_wo_entrp">    -67.22243589 </i>
    <i name="e_0_energy">    -67.22243590 </i>
   </energy>
  </scstep>
  <scstep>
   <time name="dav">    2.67    2.67</time>
   <time name="total">    2.97    2.98</time>
   <energy>
    <i name="e_fr_energy">    -67.22244276 </i>
    <i name="e_wo_entrp">    -67.22244274 </i>
    <i name="e_0_energy">    -67.22244275 </i>
   </energy>
  </scstep>
  <scstep>
   <time name="dav">    2.24    2.25</time>
   <time name="total">    2.37    2.37</time>
   <energy>
    <i name="alphaZ">     14.48912269 </i>
    <i name="ewald">   2563.36186917 </i>
    <i name="hartreedc">  -3458.41108499 </i>
    <i name="XCdc">     95.77265883 </i>
    <i name="pawpsdc">   2843.39818273 </i>
    <i name="pawaedc">  -2845.90161317 </i>
    <i name="eentropy">     -0.00000002 </i>
    <i name="bandstr">   -305.13547767 </i>
    <i name="atom">   1025.20389953 </i>
    <i name="e_fr_energy">    -67.22244291 </i>
    <i name="e_wo_entrp">    -67.22244289 </i>
    <i name="e_0_energy">    -67.22244290 </i>
   </energy>
  </scstep>
  <structure>
   <crystal>
    <varray name="basis" >
     <v>       4.49879847       2.59738231       0.00000000 </v>
     <v>      -4.49879847       2.59738231      -0.00000000 </v>
     <v>      -0.00000000      -0.00000000      14.98021029 </v>
    </varray>
    <i name="volume">    350.09049670 </i>
    <varray name="rec_basis" >
     <v>       0.11114079       0.19250150       0.00000000 </v>
     <v>      -0.11114079       0.19250150       0.00000000 </v>
     <v>      -0.00000000      -0.00000000       0.06675474 </v>
    </varray>
   </crystal>
   <varray name="positions" >
    <v>       0.33333300       0.66666600       0.25000000 </v>
    <v>       0.66666600       0.33333300       0.25000000 </v>
    <v>       0.15866367       0.31732834       0.25000000 </v>
    <v>       0.31732834       0.15866367       0.25000000 </v>
    <v>       0.15866367       0.84133533       0.25000000 </v>
    <v>       0.84133533       0.15866367       0.25000000 </v>
    <v>       0.68267066       0.84133533       0.25000000 </v>
    <v>       0.84133533       0.68267066       0.25000000 </v>
   </varray>
  </structure>
  <varray name="forces" >
   <v>      -0.00000000      -0.00000000      -0.00000000 </v>
   <v>      -0.00000000      -0.00000000      -0.00000000 </v>
   <v>       0.03154011      -0.05462908      -0.00000000 </v>
   <v>      -0.03154011      -0.05462908      -0.00000000 </v>
   <v>      -0.06308023      -0.00000000       0.00000000 </v>
   <v>       0.06308023      -0.00000000      -0.00000000 </v>
   <v>       0.03154011       0.05462908       0.00000000 </v>
   <v>      -0.03154011       0.05462908       0.00000000 </v>
  </varray>
  <varray name="stress" >
   <v>      -8.97890887       0.00000000      -0.00000000 </v>
   <v>       0.00000000      -8.97890749       0.00000000 </v>
   <v>      -0.00000000      -0.00000000      -0.85935603 </v>
  </varray>
  <energy>
   <i name="e_fr_energy">    -67.22244291 </i>
   <i name="e_wo_entrp">    -67.22244290 </i>
   <i name="e_0_energy">     -0.00000002 </i>
  </energy>
  <time name="totalsc">   29.54   29.65</time>
 </calculation>
 <calculation>
  <scstep>
   <time name="dav">    2.47    2.47</time>
   <time name="total">    2.77    2.78</time>
   <energy>
    <i name="alphaZ">     14.60152030 </i>
    <i name="ewald">   2594.13216392 </i>
    <i name="hartreedc">  -3488.21730489 </i>
    <i name="XCdc">     96.00719729 </i>
    <i name="pawpsdc">   2843.44524854 </i>
    <i name="pawaedc">  -2845.94864412 </i>
    <i name="eentropy">     -0.00000005 </i>
    <i name="bandstr">   -306.45631270 </i>
    <i name="atom">   1025.20389953 </i>
    <i name="e_fr_energy">    -67.23223217 </i>
    <i name="e_wo_entrp">    -67.23223212 </i>
    <i name="e_0_energy">    -67.23223214 </i>
   </energy>
  </scstep>
  <scstep>
   <time name="dav">    2.77    2.78</time>
   <time name="total">    3.08    3.08</time>
   <energy>
    <i name="e_fr_energy">    -67.23097680 </i>
    <i name="e_wo_entrp">    -67.23097675 </i>
    <i name="e_0_energy">    -67.23097677 </i>
   </energy>
  </scstep>
  <scstep>
   <time name="dav">    2.39    2.39</time>
   <time name="total">    2.69    2.70</time>
   <energy>
    <i name="e_fr_energy">    -67.23036985 </i>
    <i name="e_wo_entrp">    -67.23036979 </i>
    <i name="e_0_energy">    -67.23036982 </i>
   </energy>
  </scstep>
  <scstep>
   <time name="dav">    2.71    2.72</time>
   <time name="total">    3.02    3.02</time>
   <energy>
    <i name="e_fr_energy">    -67.23032424 </i>
    <i name="e_wo_entrp">    -67.23032417 </i>
    <i name="e_0_energy">    -67.23032421 </i>
   </energy>
  </scstep>
  <scstep>
   <time name="dav">    2.50    2.50</time>
   <time name="total">    2.80    2.81</time>
   <energy>
    <i name="e_fr_energy">    -67.23031750 </i>
    <i name="e_wo_entrp">    -67.23031742 </i>
    <i name="e_0_energy">    -67.23031746 </i>
   </energy>
  </scstep>
  <scstep>
   <time name="dav">    2.01    2.01</time>
   <time name="total">    2.32    2.32</time>
   <energy>
    <i name="e_fr_energy">    -67.23032650 </i>
    <i name="e_wo_entrp">    -67.23032643 </i>
    <i name="e_0_energy">    -67.23032646 </i>
   </energy>
  </scstep>
  <scstep>
   <time name="dav">    2.17    2.18</time>
   <time name="total">    2.48    2.49</time>
   <energy>
    <i name="e_fr_energy">    -67.23033866 </i>
    <i name="e_wo_entrp">    -67.23033859 </i>
    <i name="e_0_energy">    -67.23033862 </i>
   </energy>
  </scstep>
  <scstep>
   <time name="dav">    2.20    2.20</time>
   <time name="total">    2.51    2.51</time>
   <energy>
    <i name="e_fr_energy">    -67.23035529 </i>
    <i name="e_wo_entrp">    -67.23035522 </i>
    <i name="e_0_energy">    -67.23035526 </i>
   </energy>
  </scstep>
  <scstep>
   <time name="dav">    2.29    2.29</time>
   <time name="total">    2.60    2.60</time>
   <energy>
    <i name="e_fr_energy">    -67.23035814 </i>
    <i name="e_wo_entrp">    -67.23035807 </i>
    <i name="e_0_energy">    -67.23035810 </i>
   </energy>
  </scstep>
  <scstep>
   <time name="dav">    2.13    2.13</time>
   <time name="total">    2.45    2.45</time>
   <energy>
    <i name="e_fr_energy">    -67.23036355 </i>
    <i name="e_wo_entrp">    -67.23036348 </i>
    <i name="e_0_energy">    -67.23036352 </i>
   </energy>
  </scstep>
  <scstep>
   <time name="dav">    2.09    2.09</time>
   <time name="total">    2.40    2.40</time>
   <energy>
    <i name="e_fr_energy">    -67.23036726 </i>
    <i name="e_wo_entrp">    -67.23036718 </i>
    <i name="e_0_energy">    -67.23036722 </i>
   </energy>
  </scstep>
  <scstep>
   <time name="dav">    2.15    2.15</time>
   <time name="total">    2.46    2.46</time>
   <energy>
    <i name="e_fr_energy">    -67.23036844 </i>
    <i name="e_wo_entrp">    -67.23036837 </i>
    <i name="e_0_energy">    -67.23036841 </i>
   </energy>
  </scstep>
  <scstep>
   <time name="dav">    1.79    1.79</time>
   <time name="total">    2.10    2.10</time>
   <energy>
    <i name="e_fr_energy">    -67.23037002 </i>
    <i name="e_wo_entrp">    -67.23036995 </i>
    <i name="e_0_energy">    -67.23036998 </i>
   </energy>
  </scstep>
  <scstep>
   <time name="dav">    2.06    2.06</time>
   <time name="total">    2.17    2.17</time>
   <energy>
    <i name="alphaZ">     14.60152030 </i>
    <i name="ewald">   2594.13216392 </i>
    <i name="hartreedc">  -3489.49448362 </i>
    <i name="XCdc">     96.02455063 </i>
    <i name="pawpsdc">   2894.83119622 </i>
    <i name="pawaedc">  -2897.35887316 </i>
    <i name="eentropy">     -0.00000007 </i>
    <i name="bandstr">   -305.17034381 </i>
    <i name="atom">   1025.20389953 </i>
    <i name="e_fr_energy">    -67.23037007 </i>
    <i name="e_wo_entrp">    -67.23037000 </i>
    <i name="e_0_energy">    -67.23037004 </i>
   </energy>
  </scstep>
  <structure>
   <crystal>
    <varray name="basis" >
     <v>       4.48023908       2.58666704       0.00000000 </v>
     <v>      -4.48023908       2.58666704      -0.00000000 </v>
     <v>      -0.00000000      -0.00000000      14.98830836 </v>
    </varray>
    <i name="volume">    347.39561736 </i>
    <varray name="rec_basis" >
     <v>       0.11160119       0.19329894       0.00000000 </v>
     <v>      -0.11160119       0.19329894       0.00000000 </v>
     <v>      -0.00000000      -0.00000000       0.06671867 </v>
    </varray>
   </crystal>
   <varray name="positions" >
    <v>       0.33333300       0.66666600       0.25000000 </v>
    <v>       0.66666600       0.33333300       0.25000000 </v>
    <v>       0.15876890       0.31753880       0.25000000 </v>
    <v>       0.31753880       0.15876890       0.25000000 </v>
    <v>       0.15876890       0.84123010       0.25000000 </v>
    <v>       0.84123010       0.15876890       0.25000000 </v>
    <v>       0.68246020       0.84123010       0.25000000 </v>
    <v>       0.84123010       0.68246020       0.25000000 </v>
   </varray>
  </structure>
  <varray name="forces" >
   <v>       0.00000000      -0.00000000      -0.00000000 </v>
   <v>       0.00000000       0.00000000      -0.00000000 </v>
   <v>       0.01974807      -0.03420466      -0.00000000 </v>
   <v>      -0.01974807      -0.03420466      -0.00000000 </v>
   <v>      -0.03949615       0.00000000       0.00000000 </v>
   <v>       0.03949615      -0.00000000      -0.00000000 </v>
   <v>       0.01974807       0.03420466       0.00000000 </v>
   <v>      -0.01974807       0.03420466       0.00000000 </v>
  </varray>
  <varray name="stress" >
   <v>      -0.17265024       0.00000000      -0.00000000 </v>
   <v>       0.00000000      -0.17265021       0.00000000 </v>
   <v>       0.00000000       0.00000000      -0.82709838 </v>
  </varray>
  <energy>
   <i name="e_fr_energy">    -67.23037007 </i>
   <i name="e_wo_entrp">    -67.23037004 </i>
   <i name="e_0_energy">     -0.00000007 </i>
  </energy>
  <time name="totalsc">   38.26   38.35</time>
 </calculation>
 <calculation>
  <scstep>
   <time name="dav">    2.17    2.17</time>
   <time name="total">    2.47    2.48</time>
   <energy>
    <i name="alphaZ">     14.61254716 </i>
    <i name="ewald">   2590.49658522 </i>
    <i name="hartreedc">  -3486.59344785 </i>
    <i name="XCdc">     96.05520660 </i>
    <i name="pawpsdc">   2894.83290197 </i>
    <i name="pawaedc">  -2897.36057770 </i>
    <i name="eentropy">     -0.00000008 </i>
    <i name="bandstr">   -304.47771089 </i>
    <i name="atom">   1025.20389953 </i>
    <i name="e_fr_energy">    -67.23059605 </i>
    <i name="e_wo_entrp">    -67.23059597 </i>
    <i name="e_0_energy">    -67.23059601 </i>
   </energy>
  </scstep>
  <scstep>
   <time name="dav">    2.17    2.17</time>
   <time name="total">    2.48    2.48</time>
   <energy>
    <i name="e_fr_energy">    -67.23051602 </i>
    <i name="e_wo_entrp">    -67.23051595 </i>
    <i name="e_0_energy">    -67.23051599 </i>
   </energy>
  </scstep>
  <scstep>
   <time name="dav">    2.53    2.53</time>
   <time name="total">    2.83    2.83</time>
   <energy>
    <i name="e_fr_energy">    -67.23044154 </i>
    <i name="e_wo_entrp">    -67.23044148 </i>
    <i name="e_0_energy">    -67.23044151 </i>
   </energy>
  </scstep>
  <scstep>
   <time name="dav">    2.57    2.57</time>
   <time name="total">    2.87    2.87</time>
   <energy>
    <i name="e_fr_energy">    -67.23043397 </i>
    <i name="e_wo_entrp">    -67.23043390 </i>
    <i name="e_0_energy">    -67.23043393 </i>
   </energy>
  </scstep>
  <scstep>
   <time name="dav">    2.39    2.40</time>
   <time name="total">    2.50    2.50</time>
   <energy>
    <i name="alphaZ">     14.61254716 </i>
    <i name="ewald">   2590.49658522 </i>
    <i name="hartreedc">  -3486.04214637 </i>
    <i name="XCdc">     96.03614390 </i>
    <i name="pawpsdc">   2896.40366266 </i>
    <i name="pawaedc">  -2898.93175649 </i>
    <i name="eentropy">     -0.00000006 </i>
    <i name="bandstr">   -305.00936919 </i>
    <i name="atom">   1025.20389953 </i>
    <i name="e_fr_energy">    -67.23043365 </i>
    <i name="e_wo_entrp">    -67.23043359 </i>
    <i name="e_0_energy">    -67.23043362 </i>
   </energy>
  </scstep>
  <structure>
   <crystal>
    <varray name="basis" >
     <v>       4.48047442       2.58680291       0.00000000 </v>
     <v>      -4.48047442       2.58680291      -0.00000000 </v>
     <v>      -0.00000000      -0.00000000      14.97542469 </v>
    </varray>
    <i name="volume">    347.13346727 </i>
    <varray name="rec_basis" >
     <v>       0.11159533       0.19328879       0.00000000 </v>
     <v>      -0.11159533       0.19328879       0.00000000 </v>
     <v>      -0.00000000      -0.00000000       0.06677607 </v>
    </varray>
   </crystal>
   <varray name="positions" >
    <v>       0.33333300       0.66666600       0.25000000 </v>
    <v>       0.66666600       0.33333300       0.25000000 </v>
    <v>       0.15859991       0.31720082       0.25000000 </v>
    <v>       0.31720082       0.15859991       0.25000000 </v>
    <v>       0.15859991       0.84139909       0.25000000 </v>
    <v>       0.84139909       0.15859991       0.25000000 </v>
    <v>       0.68279818       0.84139909       0.25000000 </v>
    <v>       0.84139909       0.68279818       0.25000000 </v>
   </varray>
  </structure>
  <varray name="forces" >
   <v>       0.00000000       0.00000000       0.00000000 </v>
   <v>       0.00000000       0.00000000       0.00000000 </v>
   <v>      -0.02766395       0.04791536      -0.00000000 </v>
   <v>       0.02766395       0.04791536       0.00000000 </v>
   <v>       0.05532790       0.00000000       0.00000000 </v>
   <v>      -0.05532790       0.00000000       0.00000000 </v>
   <v>      -0.02766395      -0.04791536       0.00000000 </v>
   <v>       0.02766395      -0.04791536       0.00000000 </v>
  </varray>
  <varray name="stress" >
   <v>       0.14761267       0.00000000       0.00000000 </v>
   <v>       0.00000000       0.14761265       0.00000000 </v>
   <v>       0.00000000       0.00000000      -0.85417892 </v>
  </varray>
  <energy>
   <i name="e_fr_energy">    -67.23043365 </i>
   <i name="e_wo_entrp">    -67.23043362 </i>
   <i name="e_0_energy">     -0.00000006 </i>
  </energy>
  <time name="totalsc">   15.56   15.65</time>
 </calculation>
 <calculation>
  <scstep>
   <time name="dav">    2.24    2.26</time>
   <time name="total">    2.55    2.57</time>
   <energy>
    <i name="alphaZ">     14.60772810 </i>
    <i name="ewald">   2592.08377200 </i>
    <i name="hartreedc">  -3487.28181328 </i>
    <i name="XCdc">     96.02266831 </i>
    <i name="pawpsdc">   2896.42949358 </i>
    <i name="pawaedc">  -2898.95784282 </i>
    <i name="eentropy">     -0.00000006 </i>
    <i name="bandstr">   -305.33843784 </i>
    <i name="atom">   1025.20389953 </i>
    <i name="e_fr_energy">    -67.23053249 </i>
    <i name="e_wo_entrp">    -67.23053243 </i>
    <i name="e_0_energy">    -67.23053246 </i>
   </energy>
  </scstep>
  <scstep>
   <time name="dav">    2.19    2.19</time>
   <time name="total">    2.49    2.49</time>
   <energy>
    <i name="e_fr_energy">    -67.23052563 </i>
    <i name="e_wo_entrp">    -67.23052557 </i>
    <i name="e_0_energy">    -67.23052560 </i>
   </energy>
  </scstep>
  <scstep>
   <time name="dav">    2.37    2.37</time>
   <time name="total">    2.66    2.67</time>
   <energy>
    <i name="e_fr_energy">    -67.23052004 </i>
    <i name="e_wo_entrp">    -67.23051998 </i>
    <i name="e_0_energy">    -67.23052001 </i>
   </energy>
  </scstep>
  <scstep>
   <time name="dav">    2.64    2.65</time>
   <time name="total">    2.75    2.75</time>
   <energy>
    <i name="alphaZ">     14.60772810 </i>
    <i name="ewald">   2592.08377200 </i>
    <i name="hartreedc">  -3487.45284480 </i>
    <i name="XCdc">     96.02973113 </i>
    <i name="pawpsdc">   2895.91730215 </i>
    <i name="pawaedc">  -2898.44563548 </i>
    <i name="eentropy">     -0.00000007 </i>
    <i name="bandstr">   -305.17447298 </i>
    <i name="atom">   1025.20389953 </i>
    <i name="e_fr_energy">    -67.23052040 </i>
    <i name="e_wo_entrp">    -67.23052034 </i>
    <i name="e_0_energy">    -67.23052037 </i>
   </energy>
  </scstep>
  <structure>
   <crystal>
    <varray name="basis" >
     <v>       4.48037162       2.58674356       0.00000000 </v>
     <v>      -4.48037162       2.58674356      -0.00000000 </v>
     <v>      -0.00000000      -0.00000000      14.98105247 </v>
    </varray>
    <i name="volume">    347.24798582 </i>
    <varray name="rec_basis" >
     <v>       0.11159789       0.19329322       0.00000000 </v>
     <v>      -0.11159789       0.19329322       0.00000000 </v>
     <v>      -0.00000000      -0.00000000       0.06675098 </v>
    </varray>
   </crystal>
   <varray name="positions" >
    <v>       0.33333300       0.66666600       0.25000000 </v>
    <v>       0.66666600       0.33333300       0.25000000 </v>
    <v>       0.15867372       0.31734845       0.25000000 </v>
    <v>       0.31734845       0.15867372       0.25000000 </v>
    <v>       0.15867372       0.84132528       0.25000000 </v>
    <v>       0.84132528       0.15867372       0.25000000 </v>
    <v>       0.68265055       0.84132528       0.25000000 </v>
    <v>       0.84132528       0.68265055       0.25000000 </v>
   </varray>
  </structure>
  <varray name="forces" >
   <v>      -0.00000000       0.00000000       0.00000000 </v>
   <v>       0.00000000       0.00000000       0.00000000 </v>
   <v>      -0.00677368       0.01173235       0.00000000 </v>
   <v>       0.00677368       0.01173235       0.00000000 </v>
   <v>       0.01354736       0.00000000      -0.00000000 </v>
   <v>      -0.01354736       0.00000000       0.00000000 </v>
   <v>      -0.00677368      -0.01173235      -0.00000000 </v>
   <v>       0.00677368      -0.01173235      -0.00000000 </v>
  </varray>
  <varray name="stress" >
   <v>      -0.00670688       0.00000000      -0.00000000 </v>
   <v>       0.00000000      -0.00670688       0.00000000 </v>
   <v>       0.00000000       0.00000000      -0.75389886 </v>
  </varray>
  <energy>
   <i name="e_fr_energy">    -67.23052040 </i>
   <i name="e_wo_entrp">    -67.23052037 </i>
   <i name="e_0_energy">     -0.00000007 </i>
  </energy>
  <time name="totalsc">   12.86   12.95</time>
 </calculation>
 <calculation>
  <scstep>
   <time name="dav">    2.83    2.83</time>
   <time name="total">    3.13    3.14</time>
   <energy>
    <i name="alphaZ">     14.62091462 </i>
    <i name="ewald">   2587.98742079 </i>
    <i name="hartreedc">  -3484.31200302 </i>
    <i name="XCdc">     96.05724652 </i>
    <i name="pawpsdc">   2895.83011944 </i>
    <i name="pawaedc">  -2898.35833864 </i>
    <i name="eentropy">     -0.00000010 </i>
    <i name="bandstr">   -304.26016678 </i>
    <i name="atom">   1025.20389953 </i>
    <i name="e_fr_energy">    -67.23090765 </i>
    <i name="e_wo_entrp">    -67.23090754 </i>
    <i name="e_0_energy">    -67.23090760 </i>
   </energy>
  </scstep>
  <scstep>
   <time name="dav">    2.25    2.25</time>
   <time name="total">    2.55    2.56</time>
   <energy>
    <i name="e_fr_energy">    -67.23074743 </i>
    <i name="e_wo_entrp">    -67.23074735 </i>
    <i name="e_0_energy">    -67.23074739 </i>
   </energy>
  </scstep>
  <scstep>
   <time name="dav">    2.33    2.33</time>
   <time name="total">    2.63    2.63</time>
   <energy>
    <i name="e_fr_energy">    -67.23066793 </i>
    <i name="e_wo_entrp">    -67.23066786 </i>
    <i name="e_0_energy">    -67.23066790 </i>
   </energy>
  </scstep>
  <scstep>
   <time name="dav">    2.67    2.67</time>
   <time name="total">    2.77    2.78</time>
   <energy>
    <i name="alphaZ">     14.62091462 </i>
    <i name="ewald">   2587.98742079 </i>
    <i name="hartreedc">  -3483.64748658 </i>
    <i name="XCdc">     96.03232163 </i>
    <i name="pawpsdc">   2895.64248428 </i>
    <i name="pawaedc">  -2898.16981202 </i>
    <i name="eentropy">     -0.00000007 </i>
    <i name="bandstr">   -304.90040999 </i>
    <i name="atom">   1025.20389953 </i>
    <i name="e_fr_energy">    -67.23066781 </i>
    <i name="e_wo_entrp">    -67.23066774 </i>
    <i name="e_0_energy">    -67.23066777 </i>
   </energy>
  </scstep>
  <structure>
   <crystal>
    <varray name="basis" >
     <v>       4.48040625       2.58676356       0.00000000 </v>
     <v>      -4.48040625       2.58676356      -0.00000000 </v>
     <v>      -0.00000000      -0.00000000      14.96730977 </v>
    </varray>
    <i name="volume">    346.93480492 </i>
    <varray name="rec_basis" >
     <v>       0.11159702       0.19329173       0.00000000 </v>
     <v>      -0.11159702       0.19329173       0.00000000 </v>
     <v>      -0.00000000      -0.00000000       0.06681227 </v>
    </varray>
   </crystal>
   <varray name="positions" >
    <v>       0.33333300       0.66666600       0.25000000 </v>
    <v>       0.66666600       0.33333300       0.25000000 </v>
    <v>       0.15868020       0.31736140       0.25000000 </v>
    <v>       0.31736140       0.15868020       0.25000000 </v>
    <v>       0.15868020       0.84131880       0.25000000 </v>
    <v>       0.84131880       0.15868020       0.25000000 </v>
    <v>       0.68263760       0.84131880       0.25000000 </v>
    <v>       0.84131880       0.68263760       0.25000000 </v>
   </varray>
  </structure>
  <varray name="forces" >
   <v>      -0.00000000       0.00000000      -0.00000000 </v>
   <v>       0.00000000       0.00000000      -0.00000000 </v>
   <v>      -0.00500455       0.00866814      -0.00000000 </v>
   <v>       0.00500455       0.00866814       0.00000000 </v>
   <v>       0.01000910       0.00000000       0.00000000 </v>
   <v>      -0.01000910       0.00000000      -0.00000000 </v>
   <v>      -0.00500455      -0.00866814       0.00000000 </v>
   <v>       0.00500455      -0.00866814      -0.00000000 </v>
  </varray>
  <varray name="stress" >
   <v>       0.00209397       0.00000000      -0.00000000 </v>
   <v>       0.00000000       0.00209397       0.00000000 </v>
   <v>      -0.00000000      -0.00000000      -0.99181261 </v>
  </varray>
  <energy>
   <i name="e_fr_energy">    -67.23066781 </i>
   <i name="e_wo_entrp">    -67.23066777 </i>
   <i name="e_0_energy">     -0.00000007 </i>
  </energy>
  <time name="totalsc">   13.48   13.55</time>
 </calculation>
 <calculation>
  <scstep>
   <time name="dav">    2.40    2.41</time>
   <time name="total">    2.70    2.71</time>
   <energy>
    <i name="alphaZ">     14.66061989 </i>
    <i name="ewald">   2575.69918116 </i>
    <i name="hartreedc">  -3474.10307769 </i>
    <i name="XCdc">     96.11159697 </i>
    <i name="pawpsdc">   2895.40967280 </i>
    <i name="pawaedc">  -2897.93748845 </i>
    <i name="eentropy">     -0.00000023 </i>
    <i name="bandstr">   -302.27756868 </i>
    <i name="atom">   1025.20389953 </i>
    <i name="e_fr_energy">    -67.23316469 </i>
    <i name="e_wo_entrp">    -67.23316446 </i>
    <i name="e_0_energy">    -67.23316458 </i>
   </energy>
  </scstep>
  <scstep>
   <time name="dav">    2.21    2.21</time>
   <time name="total">    2.51    2.51</time>
   <energy>
    <i name="e_fr_energy">    -67.23170181 </i>
    <i name="e_wo_entrp">    -67.23170168 </i>
    <i name="e_0_energy">    -67.23170175 </i>
   </energy>
  </scstep>
  <scstep>
   <time name="dav">    2.57    2.57</time>
   <time name="total">    2.87    2.87</time>
   <energy>
    <i name="e_fr_energy">    -67.23099666 </i>
    <i name="e_wo_entrp">    -67.23099658 </i>
    <i name="e_0_energy">    -67.23099662 </i>
   </energy>
  </scstep>
  <scstep>
   <time name="dav">    2.23    2.23</time>
   <time name="total">    2.53    2.53</time>
   <energy>
    <i name="e_fr_energy">    -67.23102056 </i>
    <i name="e_wo_entrp">    -67.23102049 </i>
    <i name="e_0_energy">    -67.23102053 </i>
   </energy>
  </scstep>
  <scstep>
   <time name="dav">    2.35    2.36</time>
   <time name="total">    2.65    2.65</time>
   <energy>
    <i name="e_fr_energy">    -67.23103822 </i>
    <i name="e_wo_entrp">    -67.23103815 </i>
    <i name="e_0_energy">    -67.23103818 </i>
   </energy>
  </scstep>
  <scstep>
   <time name="dav">    2.19    2.19</time>
   <time name="total">    2.49    2.49</time>
   <energy>
    <i name="e_fr_energy">    -67.23111512 </i>
    <i name="e_wo_entrp">    -67.23111505 </i>
    <i name="e_0_energy">    -67.23111508 </i>
   </energy>
  </scstep>
  <scstep>
   <time name="dav">    2.57    2.58</time>
   <time name="total">    2.87    2.88</time>
   <energy>
    <i name="e_fr_energy">    -67.23113065 </i>
    <i name="e_wo_entrp">    -67.23113058 </i>
    <i name="e_0_energy">    -67.23113062 </i>
   </energy>
  </scstep>
  <scstep>
   <time name="dav">    2.29    2.30</time>
   <time name="total">    2.59    2.60</time>
   <energy>
    <i name="e_fr_energy">    -67.23115518 </i>
    <i name="e_wo_entrp">    -67.23115511 </i>
    <i name="e_0_energy">    -67.23115514 </i>
   </energy>
  </scstep>
  <scstep>
   <time name="dav">    2.35    2.35</time>
   <time name="total">    2.46    2.46</time>
   <energy>
    <i name="alphaZ">     14.66061989 </i>
    <i name="ewald">   2575.69918116 </i>
    <i name="hartreedc">  -3471.36632782 </i>
    <i name="XCdc">     96.02601917 </i>
    <i name="pawpsdc">   2894.42263296 </i>
    <i name="pawaedc">  -2896.95061628 </i>
    <i name="eentropy">     -0.00000007 </i>
    <i name="bandstr">   -304.92656434 </i>
    <i name="atom">   1025.20389953 </i>
    <i name="e_fr_energy">    -67.23115579 </i>
    <i name="e_wo_entrp">    -67.23115572 </i>
    <i name="e_0_energy">    -67.23115575 </i>
   </energy>
  </scstep>
  <structure>
   <crystal>
    <varray name="basis" >
     <v>       4.48051014       2.58682354       0.00000000 </v>
     <v>      -4.48051014       2.58682354      -0.00000000 </v>
     <v>      -0.00000000      -0.00000000      14.92608165 </v>
    </varray>
    <i name="volume">    345.99520336 </i>
    <varray name="rec_basis" >
     <v>       0.11159444       0.19328725       0.00000000 </v>
     <v>      -0.11159444       0.19328725       0.00000000 </v>
     <v>      -0.00000000      -0.00000000       0.06699682 </v>
    </varray>
   </crystal>
   <varray name="positions" >
    <v>       0.33333300       0.66666600       0.25000000 </v>
    <v>       0.66666600       0.33333300       0.25000000 </v>
    <v>       0.15869963       0.31740026       0.25000000 </v>
    <v>       0.31740026       0.15869963       0.25000000 </v>
    <v>       0.15869963       0.84129937       0.25000000 </v>
    <v>       0.84129937       0.15869963       0.25000000 </v>
    <v>       0.68259874       0.84129937       0.25000000 </v>
    <v>       0.84129937       0.68259874       0.25000000 </v>
   </varray>
  </structure>
  <varray name="forces" >
   <v>       0.00000000       0.00000000       0.00000000 </v>
   <v>       0.00000000       0.00000000       0.00000000 </v>
   <v>       0.00107266      -0.00185790       0.00000000 </v>
   <v>      -0.00107266      -0.00185790       0.00000000 </v>
   <v>      -0.00214532       0.00000000       0.00000000 </v>
   <v>       0.00214532       0.00000000      -0.00000000 </v>
   <v>       0.00107266       0.00185790      -0.00000000 </v>
   <v>      -0.00107266       0.00185790       0.00000000 </v>
  </varray>
  <varray name="stress" >
   <v>      -0.10274289       0.00000000      -0.00000000 </v>
   <v>       0.00000000      -0.10274287       0.00000000 </v>
   <v>       0.00000000      -0.00000000      -0.73003727 </v>
  </varray>
  <energy>
   <i name="e_fr_energy">    -67.23115579 </i>
   <i name="e_wo_entrp">    -67.23115575 </i>
   <i name="e_0_energy">     -0.00000007 </i>
  </energy>
  <time name="totalsc">   26.08   26.16</time>
 </calculation>
 <calculation>
  <scstep>
   <time name="dav">    2.68    2.68</time>
   <time name="total">    2.99    2.99</time>
   <energy>
    <i name="alphaZ">     14.74069227 </i>
    <i name="ewald">   2551.12637249 </i>
    <i name="hartreedc">  -3452.43418034 </i>
    <i name="XCdc">     96.18943506 </i>
    <i name="pawpsdc">   2894.10919204 </i>
    <i name="pawaedc">  -2896.63757836 </i>
    <i name="eentropy">     -0.00000078 </i>
    <i name="bandstr">   -299.53791808 </i>
    <i name="atom">   1025.20389953 </i>
    <i name="e_fr_energy">    -67.24008617 </i>
    <i name="e_wo_entrp">    -67.24008539 </i>
    <i name="e_0_energy">    -67.24008578 </i>
   </energy>
  </scstep>
  <scstep>
   <time name="dav">    2.35    2.35</time>
   <time name="total">    2.65    2.66</time>
   <energy>
    <i name="e_fr_energy">    -67.23432187 </i>
    <i name="e_wo_entrp">    -67.23432161 </i>
    <i name="e_0_energy">    -67.23432174 </i>
   </energy>
  </scstep>
  <scstep>
   <time name="dav">    2.65    2.65</time>
   <time name="total">    2.94    2.94</time>
   <energy>
    <i name="e_fr_energy">    -67.23169297 </i>
    <i name="e_wo_entrp">    -67.23169289 </i>
    <i name="e_0_energy">    -67.23169293 </i>
   </energy>
  </scstep>
  <scstep>
   <time name="dav">    2.53    2.53</time>
   <time name="total">    2.83    2.83</time>
   <energy>
    <i name="e_fr_energy">    -67.23169908 </i>
    <i name="e_wo_entrp">    -67.23169899 </i>
    <i name="e_0_energy">    -67.23169903 </i>
   </energy>
  </scstep>
  <scstep>
   <time name="dav">    2.35    2.35</time>
   <time name="total">    2.65    2.65</time>
   <energy>
    <i name="e_fr_energy">    -67.23172329 </i>
    <i name="e_wo_entrp">    -67.23172321 </i>
    <i name="e_0_energy">    -67.23172325 </i>
   </energy>
  </scstep>
  <scstep>
   <time name="dav">    2.27    2.27</time>
   <time name="total">    2.57    2.57</time>
   <energy>
    <i name="e_fr_energy">    -67.23188710 </i>
    <i name="e_wo_entrp">    -67.23188702 </i>
    <i name="e_0_energy">    -67.23188706 </i>
   </energy>
  </scstep>
  <scstep>
   <time name="dav">    2.64    2.64</time>
   <time name="total">    2.94    2.94</time>
   <energy>
    <i name="e_fr_energy">    -67.23192481 </i>
    <i name="e_wo_entrp">    -67.23192474 </i>
    <i name="e_0_energy">    -67.23192478 </i>
   </energy>
  </scstep>
  <scstep>
   <time name="dav">    2.33    2.34</time>
   <time name="total">    2.63    2.64</time>
   <energy>
    <i name="e_fr_energy">    -67.23197643 </i>
    <i name="e_wo_entrp">    -67.23197636 </i>
    <i name="e_0_energy">    -67.23197640 </i>
   </energy>
  </scstep>
  <scstep>
   <time name="dav">    2.65    2.66</time>
   <time name="total">    2.95    2.96</time>
   <energy>
    <i name="e_fr_energy">    -67.23197918 </i>
    <i name="e_wo_entrp">    -67.23197911 </i>
    <i name="e_0_energy">    -67.23197914 </i>
   </energy>
  </scstep>
  <scstep>
   <time name="dav">    2.39    2.39</time>
   <time name="total">    2.70    2.70</time>
   <energy>
    <i name="e_fr_energy">    -67.23197746 </i>
    <i name="e_wo_entrp">    -67.23197739 </i>
    <i name="e_0_energy">    -67.23197742 </i>
   </energy>
  </scstep>
  <scstep>
   <time name="dav">    2.20    2.21</time>
   <time name="total">    2.31    2.32</time>
   <energy>
    <i name="alphaZ">     14.74069227 </i>
    <i name="ewald">   2551.12637249 </i>
    <i name="hartreedc">  -3447.15163971 </i>
    <i name="XCdc">     96.02050688 </i>
    <i name="pawpsdc">   2891.87328423 </i>
    <i name="pawaedc">  -2894.40168144 </i>
    <i name="eentropy">     -0.00000007 </i>
    <i name="bandstr">   -304.64341162 </i>
[...]
       <r>  -15.4641    1.0000 </r>
       <r>  -12.3322    1.0000 </r>
       <r>  -10.8884    1.0000 </r>
       <r>   -9.1537    1.0000 </r>
       <r>   -7.9514    1.0000 </r>
       <r>   -7.3523    1.0000 </r>
       <r>   -6.2352    1.0000 </r>
       <r>   -6.1718    1.0000 </r>
       <r>   -5.9392    1.0000 </r>
       <r>   -5.1754    1.0000 </r>
       <r>   -5.0320    1.0000 </r>
       <r>   -4.0877    1.0000 </r>
       <r>   -4.0521    1.0000 </r>
       <r>   -1.1051    0.0000 </r>
       <r>    1.0506    0.0000 </r>
       <r>    3.9451    0.0000 </r>
       <r>    3.9522    0.0000 </r>
       <r>    4.0590    0.0000 </r>
       <r>    5.7608    0.0000 </r>
       <r>    5.8805    0.0000 </r>
       <r>    6.0822    0.0000 </r>
       <r>    6.5110    0.0000 </r>
      </set>
      <set comment="kpoint 17">
       <r>  -17.9807    1.0000 </r>
       <r>  -15.9970    1.0000 </r>
       <r>  -15.5631    1.0000 </r>
       <r>  -12.0227    1.0000 </r>
       <r>  -11.3834    1.0000 </r>
       <r>   -9.0266    1.0000 </r>
       <r>   -8.2646    1.0000 </r>
       <r>   -7.2537    1.0000 </r>
       <r>   -6.3766    1.0000 </r>
       <r>   -6.3465    1.0000 </r>
       <r>   -5.5897    1.0000 </r>
       <r>   -4.8653    1.0000 </r>
       <r>   -4.7851    1.0000 </r>
       <r>   -4.2565    1.0000 </r>
       <r>   -4.0937    1.0000 </r>
       <r>   -0.8650    0.0000 </r>
       <r>    0.7481    0.0000 </r>
       <r>    3.3400    0.0000 </r>
       <r>    4.4816    0.0000 </r>
       <r>    4.7139    0.0000 </r>
       <r>    5.1503    0.0000 </r>
       <r>    5.1720    0.0000 </r>
       <r>    5.9051    0.0000 </r>
       <r>    6.9776    0.0000 </r>
      </set>
      <set comment="kpoint 18">
       <r>  -17.9005    1.0000 </r>
       <r>  -16.0705    1.0000 </r>
       <r>  -15.7111    1.0000 </r>
       <r>  -11.9004    1.0000 </r>
       <r>  -11.2327    1.0000 </r>
       <r>   -9.3694    1.0000 </r>
       <r>   -7.6509    1.0000 </r>
       <r>   -6.9940    1.0000 </r>
       <r>   -6.4809    1.0000 </r>
       <r>   -6.1259    1.0000 </r>
       <r>   -5.8377    1.0000 </r>
       <r>   -5.0793    1.0000 </r>
       <r>   -4.9857    1.0000 </r>
       <r>   -4.4615    1.0000 </r>
       <r>   -4.4459    1.0000 </r>
       <r>   -0.6029    0.0000 </r>
       <r>    0.5143    0.0000 </r>
       <r>    3.8483    0.0000 </r>
       <r>    4.4560    0.0000 </r>
       <r>    4.7968    0.0000 </r>
       <r>    5.0618    0.0000 </r>
       <r>    5.4980    0.0000 </r>
       <r>    6.2787    0.0000 </r>
       <r>    6.3614    0.0000 </r>
      </set>
      <set comment="kpoint 19">
       <r>  -17.8709    1.0000 </r>
       <r>  -15.9389    1.0000 </r>
       <r>  -15.9389    1.0000 </r>
       <r>  -11.5075    1.0000 </r>
       <r>  -11.5074    1.0000 </r>
       <r>   -9.5459    1.0000 </r>
       <r>   -7.0462    1.0000 </r>
       <r>   -7.0461    1.0000 </r>
       <r>   -6.6850    1.0000 </r>
       <r>   -6.0387    1.0000 </r>
       <r>   -5.9053    1.0000 </r>
       <r>   -4.8927    1.0000 </r>
       <r>   -4.8926    1.0000 </r>
       <r>   -4.8143    1.0000 </r>
       <r>   -4.8143    1.0000 </r>
       <r>   -0.0429    0.0000 </r>
       <r>   -0.0429    0.0000 </r>
       <r>    4.3910    0.0000 </r>
       <r>    4.4137    0.0000 </r>
       <r>    4.4137    0.0000 </r>
       <r>    5.5697    0.0000 </r>
       <r>    5.5698    0.0000 </r>
       <r>    5.6976    0.0000 </r>
       <r>    6.5616    0.0000 </r>
      </set>
     </set>
    </set>
   </array>
  </eigenvalues>
  <separator name="orbital magnetization" >
   <v name="MAGDIPOLOUT">      0.00000000      0.00000000      0.00000000</v>
  </separator>
  <dos>
   <i name="efermi">     -2.14656738 </i>
   <total>
    <array>
     <dimension dim="1">gridpoints</dimension>
     <dimension dim="2">spin</dimension>
     <field>energy</field>
     <field>total</field>
     <field>integrated</field>
     <set>
      <set comment="spin 1">
       <r>   -19.8147     0.0000     0.0000 </r>
       <r>   -19.7210     0.0000     0.0000 </r>
       <r>   -19.6273     0.0000     0.0000 </r>
       <r>   -19.5337     0.0000     0.0000 </r>
       <r>   -19.4400     0.0000     0.0000 </r>
       <r>   -19.3463     0.0000     0.0000 </r>
       <r>   -19.2526     0.0000     0.0000 </r>
       <r>   -19.1590     0.0000     0.0000 </r>
       <r>   -19.0653     0.0000     0.0000 </r>
       <r>   -18.9716     0.0000     0.0000 </r>
       <r>   -18.8780     0.0000     0.0000 </r>
       <r>   -18.7843     0.0001     0.0000 </r>
       <r>   -18.6906     0.0075     0.0007 </r>
       <r>   -18.5969     0.1503     0.0148 </r>
       <r>   -18.5033     0.8243     0.0920 </r>
       <r>   -18.4096     1.6769     0.2491 </r>
       <r>   -18.3159     2.0519     0.4413 </r>
       <r>   -18.2222     2.2796     0.6548 </r>
       <r>   -18.1286     2.6548     0.9035 </r>
       <r>   -18.0349     3.5226     1.2335 </r>
       <r>   -17.9412     4.3671     1.6426 </r>
       <r>   -17.8476     2.9899     1.9226 </r>
       <r>   -17.7539     0.7659     1.9944 </r>
       <r>   -17.6602     0.0590     1.9999 </r>
       <r>   -17.5665     0.0011     2.0000 </r>
       <r>   -17.4729     0.0000     2.0000 </r>
       <r>   -17.3792     0.0000     2.0000 </r>
       <r>   -17.2855     0.0000     2.0000 </r>
       <r>   -17.1919     0.0000     2.0000 </r>
       <r>   -17.0982     0.0000     2.0000 </r>
       <r>   -17.0045     0.0000     2.0000 </r>
       <r>   -16.9108     0.0000     2.0000 </r>
       <r>   -16.8172     0.0000     2.0000 </r>
       <r>   -16.7235     0.0000     2.0000 </r>
       <r>   -16.6298     0.0000     2.0000 </r>
       <r>   -16.5361     0.0000     2.0000 </r>
       <r>   -16.4425     0.0048     2.0005 </r>
       <r>   -16.3488     0.1284     2.0125 </r>
       <r>   -16.2551     0.9335     2.0999 </r>
       <r>   -16.1615     2.3055     2.3159 </r>
       <r>   -16.0678     3.1763     2.6134 </r>
       <r>   -15.9741     3.0524     2.8994 </r>
       <r>   -15.8804     2.2328     3.1085 </r>
       <r>   -15.7868     1.7788     3.2751 </r>
       <r>   -15.6931     1.9665     3.4593 </r>
       <r>   -15.5994     2.0075     3.6474 </r>
       <r>   -15.5057     1.8614     3.8217 </r>
       <r>   -15.4121     2.2320     4.0308 </r>
       <r>   -15.3184     2.5473     4.2694 </r>
       <r>   -15.2247     2.6934     4.5217 </r>
       <r>   -15.1311     3.2889     4.8298 </r>
       <r>   -15.0374     3.6439     5.1711 </r>
       <r>   -14.9437     2.8548     5.4386 </r>
       <r>   -14.8500     2.1384     5.6389 </r>
       <r>   -14.7564     1.8585     5.8130 </r>
       <r>   -14.6627     1.3791     5.9421 </r>
       <r>   -14.5690     0.5321     5.9920 </r>
       <r>   -14.4754     0.0820     5.9997 </r>
       <r>   -14.3817     0.0035     6.0000 </r>
       <r>   -14.2880     0.0000     6.0000 </r>
       <r>   -14.1943     0.0000     6.0000 </r>
       <r>   -14.1007     0.0000     6.0000 </r>
       <r>   -14.0070     0.0000     6.0000 </r>
       <r>   -13.9133     0.0000     6.0000 </r>
       <r>   -13.8196     0.0000     6.0000 </r>
       <r>   -13.7260     0.0000     6.0000 </r>
       <r>   -13.6323     0.0000     6.0000 </r>
       <r>   -13.5386     0.0000     6.0000 </r>
       <r>   -13.4450     0.0000     6.0000 </r>
       <r>   -13.3513     0.0000     6.0000 </r>
       <r>   -13.2576     0.0000     6.0000 </r>
       <r>   -13.1639     0.0000     6.0000 </r>
       <r>   -13.0703     0.0004     6.0000 </r>
       <r>   -12.9766     0.0219     6.0021 </r>
       <r>   -12.8829     0.2666     6.0271 </r>
       <r>   -12.7892     0.9631     6.1173 </r>
       <r>   -12.6956     1.9323     6.2983 </r>
       <r>   -12.6019     2.6564     6.5471 </r>
       <r>   -12.5082     2.4064     6.7725 </r>
       <r>   -12.4146     2.6252     7.0184 </r>
       <r>   -12.3209     3.8846     7.3823 </r>
       <r>   -12.2272     3.3403     7.6952 </r>
       <r>   -12.1335     1.3484     7.8215 </r>
       <r>   -12.0399     1.0199     7.9171 </r>
       <r>   -11.9462     1.4615     8.0540 </r>
       <r>   -11.8525     1.9576     8.2373 </r>
       <r>   -11.7589     1.6082     8.3880 </r>
       <r>   -11.6652     0.8558     8.4682 </r>
       <r>   -11.5715     0.6906     8.5328 </r>
       <r>   -11.4778     1.6804     8.6903 </r>
       <r>   -11.3842     2.4605     8.9207 </r>
       <r>   -11.2905     1.5377     9.0648 </r>
       <r>   -11.1968     1.3152     9.1880 </r>
       <r>   -11.1031     1.9241     9.3682 </r>
       <r>   -11.0095     2.4195     9.5948 </r>
       <r>   -10.9158     1.5580     9.7408 </r>
       <r>   -10.8221     1.1127     9.8450 </r>
       <r>   -10.7285     1.5159     9.9870 </r>
       <r>   -10.6348     1.8094    10.1565 </r>
       <r>   -10.5411     0.8162    10.2330 </r>
       <r>   -10.4474     0.3492    10.2657 </r>
       <r>   -10.3538     0.6418    10.3258 </r>
       <r>   -10.2601     0.9234    10.4123 </r>
       <r>   -10.1664     0.6366    10.4719 </r>
       <r>   -10.0727     0.3730    10.5069 </r>
       <r>    -9.9791     0.0980    10.5160 </r>
       <r>    -9.8854     0.1423    10.5294 </r>
       <r>    -9.7917     0.7825    10.6027 </r>
       <r>    -9.6981     1.7504    10.7666 </r>
       <r>    -9.6044     1.1591    10.8752 </r>
       <r>    -9.5107     0.9167    10.9611 </r>
       <r>    -9.4170     1.2444    11.0777 </r>
       <r>    -9.3234     1.5038    11.2185 </r>
       <r>    -9.2297     1.0735    11.3191 </r>
       <r>    -9.1360     1.6514    11.4738 </r>
       <r>    -9.0424     2.7542    11.7318 </r>
       <r>    -8.9487     2.8764    12.0012 </r>
       <r>    -8.8550     2.2867    12.2154 </r>
       <r>    -8.7613     1.5566    12.3612 </r>
       <r>    -8.6677     1.1104    12.4652 </r>
       <r>    -8.5740     0.6235    12.5236 </r>
       <r>    -8.4803     1.4939    12.6636 </r>
       <r>    -8.3866     3.8706    13.0261 </r>
       <r>    -8.2930     4.1996    13.4195 </r>
       <r>    -8.1993     2.0313    13.6098 </r>
       <r>    -8.1056     0.7421    13.6793 </r>
       <r>    -8.0120     1.3801    13.8086 </r>
       <r>    -7.9183     2.3247    14.0264 </r>
       <r>    -7.8246     1.9336    14.2075 </r>
       <r>    -7.7309     1.7192    14.3685 </r>
       <r>    -7.6373     2.9057    14.6407 </r>
       <r>    -7.5436     3.7718    14.9940 </r>
       <r>    -7.4499     1.9773    15.1793 </r>
       <r>    -7.3562     1.6102    15.3301 </r>
       <r>    -7.2626     3.1329    15.6235 </r>
       <r>    -7.1689     3.1682    15.9203 </r>
       <r>    -7.0752     2.3453    16.1400 </r>
       <r>    -6.9816     2.4964    16.3739 </r>
       <r>    -6.8879     2.0290    16.5639 </r>
       <r>    -6.7942     2.0433    16.7553 </r>
       <r>    -6.7005     2.2619    16.9672 </r>
       <r>    -6.6069     3.1982    17.2668 </r>
       <r>    -6.5132     4.4636    17.6849 </r>
       <r>    -6.4195     4.0825    18.0673 </r>
       <r>    -6.3259     3.6544    18.4096 </r>
       <r>    -6.2322     4.3723    18.8192 </r>
       <r>    -6.1385     3.7820    19.1735 </r>
       <r>    -6.0448     2.1879    19.3784 </r>
       <r>    -5.9512     1.7440    19.5418 </r>
       <r>    -5.8575     2.1534    19.7435 </r>
       <r>    -5.7638     1.5696    19.8905 </r>
       <r>    -5.6701     1.7978    20.0589 </r>
       <r>    -5.5765     1.9848    20.2448 </r>
       <r>    -5.4828     1.4086    20.3768 </r>
       <r>    -5.3891     1.7921    20.5447 </r>
       <r>    -5.2955     2.4705    20.7761 </r>
       <r>    -5.2018     3.4600    21.1002 </r>
       <r>    -5.1081     5.0948    21.5774 </r>
       <r>    -5.0144     8.0628    22.3327 </r>
       <r>    -4.9208     7.4718    23.0326 </r>
       <r>    -4.8271     5.4150    23.5398 </r>
       <r>    -4.7334     3.8864    23.9039 </r>
       <r>    -4.6397     1.8097    24.0734 </r>
       <r>    -4.5461     1.9352    24.2547 </r>
       <r>    -4.4524     3.2327    24.5575 </r>
       <r>    -4.3587     3.3139    24.8679 </r>
       <r>    -4.2651     1.9306    25.0488 </r>
       <r>    -4.1714     1.4526    25.1848 </r>
       <r>    -4.0777     2.6607    25.4341 </r>
       <r>    -3.9840     3.8965    25.7991 </r>
       <r>    -3.8904     3.6279    26.1389 </r>
       <r>    -3.7967     3.0798    26.4274 </r>
       <r>    -3.7030     2.6888    26.6793 </r>
       <r>    -3.6094     4.5838    27.1086 </r>
       <r>    -3.5157     5.2719    27.6025 </r>
       <r>    -3.4220     4.0719    27.9839 </r>
       <r>    -3.3283     4.5255    28.4078 </r>
       <r>    -3.2347     4.8287    28.8601 </r>
       <r>    -3.1410     3.0446    29.1453 </r>
       <r>    -3.0473     1.3356    29.2704 </r>
       <r>    -2.9536     1.6035    29.4206 </r>
       <r>    -2.8600     1.6385    29.5741 </r>
       <r>    -2.7663     0.9510    29.6632 </r>
       <r>    -2.6726     1.0433    29.7609 </r>
       <r>    -2.5790     1.2007    29.8734 </r>
       <r>    -2.4853     0.9029    29.9580 </r>
       <r>    -2.3916     0.3818    29.9937 </r>
       <r>    -2.2979     0.0637    29.9997 </r>
       <r>    -2.2043     0.0032    30.0000 </r>
       <r>    -2.1106     0.0000    30.0000 </r>
       <r>    -2.0169     0.0017    30.0002 </r>
       <r>    -1.9232     0.0533    30.0052 </r>
       <r>    -1.8296     0.3866    30.0414 </r>
       <r>    -1.7359     0.8056    30.1168 </r>
       <r>    -1.6422     1.1750    30.2269 </r>
       <r>    -1.5486     2.1198    30.4255 </r>
       <r>    -1.4549     2.4080    30.6510 </r>
       <r>    -1.3612     1.7631    30.8162 </r>
       <r>    -1.2675     1.9280    30.9968 </r>
       <r>    -1.1739     2.6773    31.2476 </r>
       <r>    -1.0802     2.6556    31.4963 </r>
       <r>    -0.9865     1.2484    31.6133 </r>
       <r>    -0.8928     0.6116    31.6706 </r>
       <r>    -0.7992     0.8702    31.7521 </r>
       <r>    -0.7055     0.5341    31.8021 </r>
       <r>    -0.6118     0.7775    31.8749 </r>
       <r>    -0.5182     0.8250    31.9522 </r>
       <r>    -0.4245     0.2029    31.9712 </r>
       <r>    -0.3308     0.0105    31.9722 </r>
       <r>    -0.2371     0.0019    31.9724 </r>
       <r>    -0.1435     0.0442    31.9765 </r>
       <r>    -0.0498     0.2276    31.9978 </r>
       <r>     0.0439     0.2544    32.0217 </r>
       <r>     0.1375     0.0620    32.0275 </r>
       <r>     0.2312     0.0032    32.0278 </r>
       <r>     0.3249     0.0065    32.0284 </r>
       <r>     0.4186     0.1497    32.0424 </r>
       <r>     0.5122     0.7127    32.1092 </r>
       <r>     0.6059     0.7563    32.1800 </r>
       <r>     0.6996     0.3652    32.2142 </r>
       <r>     0.7933     0.4461    32.2560 </r>
       <r>     0.8869     0.2501    32.2794 </r>
       <r>     0.9806     0.6629    32.3415 </r>
       <r>     1.0743     2.4417    32.5703 </r>
       <r>     1.1679     2.9246    32.8442 </r>
       <r>     1.2616     2.2552    33.0555 </r>
       <r>     1.3553     2.0596    33.2484 </r>
       <r>     1.4490     1.9723    33.4331 </r>
       <r>     1.5426     1.8700    33.6083 </r>
       <r>     1.6363     1.8950    33.7858 </r>
       <r>     1.7300     1.1609    33.8946 </r>
       <r>     1.8237     0.9914    33.9874 </r>
       <r>     1.9173     1.7725    34.1535 </r>
       <r>     2.0110     2.1412    34.3540 </r>
       <r>     2.1047     1.6849    34.5119 </r>
       <r>     2.1983     1.7010    34.6712 </r>
       <r>     2.2920     1.7183    34.8322 </r>
       <r>     2.3857     2.0097    35.0204 </r>
       <r>     2.4794     2.2434    35.2306 </r>
       <r>     2.5730     1.8969    35.4082 </r>
       <r>     2.6667     1.7788    35.5749 </r>
       <r>     2.7604     1.6941    35.7336 </r>
       <r>     2.8540     2.8494    36.0005 </r>
       <r>     2.9477     2.6868    36.2521 </r>
       <r>     3.0414     1.9299    36.4329 </r>
       <r>     3.1351     1.7325    36.5952 </r>
       <r>     3.2287     1.8835    36.7716 </r>
       <r>     3.3224     2.9334    37.0464 </r>
       <r>     3.4161     2.9230    37.3202 </r>
       <r>     3.5098     1.5340    37.4639 </r>
       <r>     3.6034     1.3033    37.5860 </r>
       <r>     3.6971     1.4258    37.7196 </r>
       <r>     3.7908     1.9505    37.9023 </r>
       <r>     3.8844     2.6443    38.1500 </r>
       <r>     3.9781     2.5648    38.3902 </r>
       <r>     4.0718     1.7803    38.5570 </r>
       <r>     4.1655     1.5057    38.6980 </r>
       <r>     4.2591     1.7445    38.8614 </r>
       <r>     4.3528     1.6131    39.0125 </r>
       <r>     4.4465     2.0363    39.2033 </r>
       <r>     4.5402     2.4445    39.4323 </r>
       <r>     4.6338     2.2769    39.6455 </r>
       <r>     4.7275     2.8209    39.9098 </r>
       <r>     4.8212     3.4580    40.2337 </r>
       <r>     4.9148     2.8590    40.5015 </r>
       <r>     5.0085     1.8594    40.6757 </r>
       <r>     5.1022     2.3634    40.8971 </r>
       <r>     5.1959     3.9798    41.2699 </r>
       <r>     5.2895     3.2624    41.5755 </r>
       <r>     5.3832     1.9413    41.7573 </r>
       <r>     5.4769     2.1677    41.9604 </r>
       <r>     5.5705     3.1186    42.2525 </r>
       <r>     5.6642     3.4480    42.5755 </r>
       <r>     5.7579     2.6704    42.8256 </r>
       <r>     5.8516     2.5924    43.0684 </r>
       <r>     5.9452     3.3558    43.3828 </r>
       <r>     6.0389     3.7239    43.7316 </r>
       <r>     6.1326     3.5108    44.0605 </r>
       <r>     6.2263     3.4092    44.3798 </r>
       <r>     6.3199     3.3455    44.6932 </r>
       <r>     6.4136     3.7179    45.0415 </r>
       <r>     6.5073     4.6681    45.4787 </r>
       <r>     6.6009     6.2740    46.0664 </r>
       <r>     6.6946     5.1116    46.5453 </r>
       <r>     6.7883     4.9202    47.0061 </r>
       <r>     6.8820     4.0368    47.3843 </r>
       <r>     6.9756     3.5027    47.7124 </r>
       <r>     7.0693     2.5392    47.9502 </r>
       <r>     7.1630     0.5079    47.9978 </r>
       <r>     7.2567     0.0232    48.0000 </r>
       <r>     7.3503     0.0002    48.0000 </r>
       <r>     7.4440     0.0000    48.0000 </r>
       <r>     7.5377     0.0000    48.0000 </r>
       <r>     7.6313     0.0000    48.0000 </r>
       <r>     7.7250     0.0000    48.0000 </r>
       <r>     7.8187     0.0000    48.0000 </r>
       <r>     7.9124     0.0000    48.0000 </r>
       <r>     8.0060     0.0000    48.0000 </r>
       <r>     8.0997     0.0000    48.0000 </r>
       <r>     8.1934     0.0000    48.0000 </r>
       <r>     8.2870     0.0000    48.0000 </r>
      </set>
     </set>
    </array>
   </total>
  </dos>
 </calculation>
 <structure name="finalpos" >
  <crystal>
   <varray name="basis" >
    <v>       4.48084843       2.58701885       0.00000000 </v>
    <v>      -4.48084843       2.58701885       0.00000000 </v>
    <v>       0.00000000       0.00000000       8.52022140 </v>
   </varray>
   <i name="volume">    197.53348383 </i>
   <varray name="rec_basis" >
    <v>       0.11158601       0.19327265      -0.00000000 </v>
    <v>      -0.11158601       0.19327265      -0.00000000 </v>
    <v>       0.00000000      -0.00000000       0.11736784 </v>
   </varray>
  </crystal>
  <varray name="positions" >
   <v>       0.33333300       0.66666600       0.25000000 </v>
   <v>       0.66666600       0.33333300       0.25000000 </v>
   <v>       0.15869124       0.31738348       0.25000000 </v>
   <v>       0.31738348       0.15869124       0.25000000 </v>
   <v>       0.15869124       0.84130776       0.25000000 </v>
   <v>       0.84130776       0.15869124       0.25000000 </v>
   <v>       0.68261552       0.84130776       0.25000000 </v>
   <v>       0.84130776       0.68261552       0.25000000 </v>
  </varray>
 </structure>
</modeling>
