 running on   12 total cores
 distrk:  each k-point on   12 cores,    1 groups
 distr:  one band on    1 cores,   12 groups
 using from now: INCAR     
 vasp.5.4.4.18Apr17-6-g9f103f2a35 (build Mar 30 2023 15:39:25) complex          
  
 POSCAR found type information on POSCAR  B  C 
 POSCAR found :  2 types and       8 ions
 scaLAPACK will be used

 ----------------------------------------------------------------------------- 
|                                                                             |
|           W    W    AA    RRRRR   N    N  II  N    N   GGGG   !!!           |
|           W    W   A  A   R    R  NN   N  II  NN   N  G    G  !!!           |
|           W    W  A    A  R    R  N N  N  II  N N  N  G       !!!           |
|           W WW W  AAAAAA  RRRRR   N  N N  II  N  N N  G  GGG   !            |
|           WW  WW  A    A  R   R   N   NN  II  N   NN  G    G                |
|           W    W  A    A  R    R  N    N  II  N    N   GGGG   !!!           |
|                                                                             |
|      For optimal performance we recommend to set                            |
|        NCORE= 4 - approx SQRT( number of cores)                             |
|      NCORE specifies how many cores store one orbital (NPAR=cpu/NCORE).     |
|      This setting can  greatly improve the performance of VASP for DFT.     |
|      The default,   NCORE=1            might be grossly inefficient         |
|      on modern multi-core architectures or massively parallel machines.     |
|      Do your own testing !!!!                                               |
|      Unfortunately you need to use the default for GW and RPA calculations. |
|      (for HF NCORE is supported but not extensively tested yet)             |
|                                                                             |
 ----------------------------------------------------------------------------- 

 LDA part: xc-table for Pade appr. of Perdew
 POSCAR, INCAR and KPOINTS ok, starting setup
 FFT: planning ...
 WAVECAR not read
 entering main loop
       N       E                     dE             d eps       ncg     rms          rms(c)
DAV:   1     0.213979232574E+03    0.21398E+03   -0.10526E+04   912   0.827E+02
DAV:   2    -0.410794246554E+02   -0.25506E+03   -0.23927E+03  1344   0.197E+02
DAV:   3    -0.714630130801E+02   -0.30384E+02   -0.30137E+02  1236   0.820E+01
DAV:   4    -0.721168170571E+02   -0.65380E+00   -0.65237E+00  1236   0.149E+01
DAV:   5    -0.721385735881E+02   -0.21757E-01   -0.21703E-01  1272   0.244E+00    0.128E+01
DAV:   6    -0.680762183172E+02    0.40624E+01   -0.34359E+00  1188   0.851E+00    0.735E+00
DAV:   7    -0.663491383254E+02    0.17271E+01   -0.48389E+00  1344   0.995E+00    0.165E+00
DAV:   8    -0.663126950659E+02    0.36443E-01   -0.13529E-01  1320   0.180E+00    0.243E-01
DAV:   9    -0.663031981184E+02    0.94969E-02   -0.65447E-03  1152   0.389E-01    0.163E-01
DAV:  10    -0.662944590817E+02    0.87390E-02   -0.94387E-03  1080   0.333E-01    0.754E-02
DAV:  11    -0.662923364935E+02    0.21226E-02   -0.32926E-03   996   0.224E-01    0.575E-02
DAV:  12    -0.662926833797E+02   -0.34689E-03   -0.58003E-04   936   0.981E-02    0.329E-02
DAV:  13    -0.662945350568E+02   -0.18517E-02   -0.21394E-04  1116   0.611E-02    0.212E-02
DAV:  14    -0.662970034501E+02   -0.24684E-02   -0.46828E-04   996   0.668E-02    0.170E-02
DAV:  15    -0.662976366215E+02   -0.63317E-03   -0.62637E-05  1104   0.303E-02    0.926E-03
DAV:  16    -0.662979420090E+02   -0.30539E-03   -0.20221E-05   948   0.179E-02    0.192E-03
DAV:  17    -0.662979691751E+02   -0.27166E-04   -0.86288E-07   996   0.422E-03    0.114E-03
DAV:  18    -0.662979824903E+02   -0.13315E-04   -0.32761E-07   744   0.268E-03    0.414E-04
DAV:  19    -0.662979828326E+02   -0.34233E-06   -0.24891E-08   924   0.821E-04
   1 F= -.66297983E+02 E0= -.66297915E+02  d E =-.662980E+02
 curvature:   0.00 expect dE= 0.000E+00 dE for cont linesearch  0.000E+00
 trial: gam= 0.00000 g(F)=  0.533E+01 g(S)=  0.290E-01 ort = 0.000E+00 (trialstep = 0.100E+01)
 search vector abs. value=  0.536E+01
 bond charge predicted
       N       E                     dE             d eps       ncg     rms          rms(c)
DAV:   1    -0.638490699097E+02    0.24489E+01   -0.74777E+02   912   0.158E+02    0.102E+01
DAV:   2    -0.632763976726E+02    0.57267E+00   -0.20567E+01  1320   0.307E+01    0.427E+00
DAV:   3    -0.629843451636E+02    0.29205E+00   -0.27001E+00  1020   0.874E+00    0.182E+00
DAV:   4    -0.629704238134E+02    0.13921E-01   -0.15376E-01  1224   0.233E+00    0.854E-01
DAV:   5    -0.629660354639E+02    0.43883E-02   -0.15453E-02  1152   0.690E-01    0.138E-01
DAV:   6    -0.629662080483E+02   -0.17258E-03   -0.90381E-04  1104   0.175E-01    0.638E-02
DAV:   7    -0.629663645416E+02   -0.15649E-03   -0.18094E-04   924   0.854E-02    0.132E-02
DAV:   8    -0.629664890423E+02   -0.12450E-03   -0.26855E-05  1008   0.262E-02    0.919E-03
DAV:   9    -0.629667340643E+02   -0.24502E-03   -0.61618E-05   948   0.283E-02    0.695E-03
DAV:  10    -0.629668108457E+02   -0.76781E-04   -0.94024E-06  1092   0.110E-02    0.348E-03
DAV:  11    -0.629668535545E+02   -0.42709E-04   -0.32861E-06  1104   0.819E-03    0.251E-03
DAV:  12    -0.629669141986E+02   -0.60644E-04   -0.26928E-06  1020   0.663E-03    0.152E-03
DAV:  13    -0.629669236622E+02   -0.94637E-05   -0.18683E-07   840   0.194E-03    0.932E-04
DAV:  14    -0.629669343892E+02   -0.10727E-04   -0.46972E-07   768   0.249E-03    0.595E-04
DAV:  15    -0.629669351110E+02   -0.72180E-06   -0.36641E-08   792   0.918E-04
   2 F= -.62966935E+02 E0= -.62966935E+02  d E =0.333105E+01
 trial-energy change:    3.331048  1 .order    4.355554   -5.355354   14.066461
 step:   0.3475(harm=  0.2757)  dis= 0.07191  next Energy=   -67.271480 (dE=-0.973E+00)
 bond charge predicted
       N       E                     dE             d eps       ncg     rms          rms(c)
DAV:   1    -0.677761177383E+02   -0.48092E+01   -0.34741E+02   912   0.114E+02    0.504E+00
DAV:   2    -0.673073464238E+02    0.46877E+00   -0.72598E+00  1200   0.166E+01    0.326E+00
DAV:   3    -0.672315383488E+02    0.75808E-01   -0.94632E-01  1080   0.565E+00    0.179E+00
DAV:   4    -0.672287082874E+02    0.28301E-02   -0.15046E-01  1200   0.181E+00    0.623E-01
DAV:   5    -0.672258563420E+02    0.28519E-02   -0.27582E-02  1140   0.990E-01    0.136E-01
DAV:   6    -0.672258995341E+02   -0.43192E-04   -0.37932E-03  1116   0.368E-01    0.725E-02
DAV:   7    -0.672260698390E+02   -0.17030E-03   -0.48492E-04  1212   0.118E-01    0.344E-02
DAV:   8    -0.672261351577E+02   -0.65319E-04   -0.24556E-04  1140   0.755E-02    0.149E-02
DAV:   9    -0.672262808797E+02   -0.14572E-03   -0.50172E-05   984   0.310E-02    0.958E-03
DAV:  10    -0.672263197957E+02   -0.38916E-04   -0.10621E-05  1128   0.127E-02    0.674E-03
DAV:  11    -0.672263298518E+02   -0.10056E-04   -0.84194E-06  1044   0.953E-03    0.220E-03
DAV:  12    -0.672263337271E+02   -0.38753E-05   -0.61839E-07  1008   0.348E-03    0.174E-03
DAV:  13    -0.672263362832E+02   -0.25560E-05   -0.21793E-07   960   0.228E-03    0.116E-03
DAV:  14    -0.672263400469E+02   -0.37638E-05   -0.31287E-07   732   0.233E-03    0.631E-04
DAV:  15    -0.672263404920E+02   -0.44507E-06   -0.25461E-08   780   0.710E-04
   3 F= -.67226340E+02 E0= -.67226340E+02  d E =-.928358E+00
 curvature:  -0.14 expect dE=-0.329E-02 dE for cont linesearch -0.419E-04
 ZBRENT: interpolating
 opt :   0.3449  next Energy=   -67.226393 (dE=-0.928E+00)
 bond charge predicted
       N       E                     dE             d eps       ncg     rms          rms(c)
DAV:   1    -0.672263970464E+02   -0.56999E-04   -0.54811E-03   912   0.445E-01    0.207E-02
DAV:   2    -0.672263894348E+02    0.76116E-05   -0.92271E-05  1116   0.624E-02    0.106E-02
DAV:   3    -0.672263880775E+02    0.13573E-05   -0.18606E-05   936   0.242E-02    0.421E-03
DAV:   4    -0.672263881259E+02   -0.48418E-07   -0.27380E-06  1284   0.833E-03
   4 F= -.67226388E+02 E0= -.67226388E+02  d E =-.928405E+00
 curvature:  -0.17 expect dE=-0.392E-02 dE for cont linesearch -0.515E-06
 trial: gam= 0.00350 g(F)=  0.160E-03 g(S)=  0.226E-01 ort = 0.400E-02 (trialstep = 0.869E+00)
 search vector abs. value=  0.228E-01
 bond charge predicted
       N       E                     dE             d eps       ncg     rms          rms(c)
DAV:   1    -0.672281588218E+02   -0.17707E-02   -0.49404E-01  1044   0.455E+00    0.447E-01
DAV:   2    -0.672244135190E+02    0.37453E-02   -0.79820E-03  1068   0.529E-01    0.270E-01
DAV:   3    -0.672225537790E+02    0.18597E-02   -0.46840E-03  1224   0.319E-01    0.521E-02
DAV:   4    -0.672224376947E+02    0.11608E-03   -0.75126E-04  1188   0.136E-01    0.223E-02
DAV:   5    -0.672224323087E+02    0.53860E-05   -0.64587E-05  1104   0.407E-02    0.967E-03
DAV:   6    -0.672224847365E+02   -0.52428E-04   -0.56307E-06   996   0.103E-02    0.405E-03
DAV:   7    -0.672225346915E+02   -0.49955E-04   -0.91653E-06   984   0.108E-02    0.258E-03
DAV:   8    -0.672225708310E+02   -0.36139E-04   -0.70801E-06  1068   0.770E-03    0.118E-03
DAV:   9    -0.672225769493E+02   -0.61183E-05   -0.11190E-06  1200   0.384E-03    0.757E-04
DAV:  10    -0.672225782472E+02   -0.12980E-05   -0.45377E-07   912   0.258E-03    0.505E-04
DAV:  11    -0.672225793217E+02   -0.10744E-05   -0.12060E-07   924   0.163E-03    0.298E-04
DAV:  12    -0.672225798694E+02   -0.54768E-06   -0.42460E-08   840   0.922E-04
   5 F= -.67222580E+02 E0= -.67222580E+02  d E =0.380826E-02
 trial-energy change:    0.003808  1 .order    0.003647   -0.019767    0.027061
 step:   0.3624(harm=  0.3668)  dis= 0.00067  next Energy=   -67.230499 (dE=-0.411E-02)
 bond charge predicted
       N       E                     dE             d eps       ncg     rms          rms(c)
DAV:   1    -0.672323175325E+02   -0.97382E-02   -0.16832E-01  1020   0.267E+00    0.261E-01
DAV:   2    -0.672310736477E+02    0.12439E-02   -0.27138E-03  1212   0.309E-01    0.158E-01
DAV:   3    -0.672304759218E+02    0.59773E-03   -0.15679E-03  1116   0.186E-01    0.299E-02
DAV:   4    -0.672304288037E+02    0.47118E-04   -0.24713E-04  1224   0.785E-02    0.127E-02
DAV:   5    -0.672304213100E+02    0.74937E-05   -0.21199E-05  1176   0.233E-02    0.565E-03
DAV:   6    -0.672304300432E+02   -0.87332E-05   -0.11577E-06   816   0.532E-03    0.228E-03
DAV:   7    -0.672304422335E+02   -0.12190E-04   -0.22791E-06   912   0.588E-03    0.155E-03
DAV:   8    -0.672304586439E+02   -0.16410E-04   -0.21891E-06   960   0.495E-03    0.818E-04
DAV:   9    -0.672304615328E+02   -0.28889E-05   -0.84748E-08   960   0.139E-03    0.459E-04
DAV:  10    -0.672304659918E+02   -0.44590E-05   -0.22299E-07   912   0.149E-03    0.338E-04
DAV:  11    -0.672304692945E+02   -0.33027E-05   -0.50485E-08   888   0.827E-04    0.232E-04
DAV:  12    -0.672304704532E+02   -0.11587E-05   -0.11997E-08   816   0.394E-04    0.210E-04
DAV:  13    -0.672304713291E+02   -0.87587E-06   -0.20371E-08   684   0.471E-04
   6 F= -.67230471E+02 E0= -.67230471E+02  d E =-.408320E-02
 curvature:  -0.18 expect dE=-0.120E-03 dE for cont linesearch -0.285E-08
 trial: gam= 0.03560 g(F)=  0.452E-03 g(S)=  0.202E-03 ort = 0.188E-04 (trialstep = 0.768E+00)
 search vector abs. value=  0.684E-03
 bond charge predicted
       N       E                     dE             d eps       ncg     rms          rms(c)
DAV:   1    -0.672306852541E+02   -0.21480E-03   -0.47650E-02   912   0.130E+00    0.604E-02
DAV:   2    -0.672306109555E+02    0.74299E-04   -0.85860E-04   960   0.177E-01    0.387E-02
DAV:   3    -0.672305414878E+02    0.69468E-04   -0.17384E-04  1140   0.701E-02    0.116E-02
DAV:   4    -0.672305345304E+02    0.69574E-05   -0.24176E-05  1248   0.250E-02    0.489E-03
DAV:   5    -0.672305339282E+02    0.60224E-06   -0.34667E-06  1008   0.857E-03
   7 F= -.67230534E+02 E0= -.67230534E+02  d E =-.625991E-04
 trial-energy change:   -0.000063  1 .order   -0.000078   -0.000502    0.000346
 step:   0.4339(harm=  0.4542)  dis= 0.00086  next Energy=   -67.230610 (dE=-0.139E-03)
 bond charge predicted
       N       E                     dE             d eps       ncg     rms          rms(c)
DAV:   1    -0.672306328701E+02   -0.98340E-04   -0.89377E-03   960   0.563E-01    0.261E-02
DAV:   2    -0.672306248683E+02    0.80018E-05   -0.16023E-04   960   0.759E-02    0.167E-02
DAV:   3    -0.672306185292E+02    0.63392E-05   -0.30822E-05  1068   0.296E-02    0.507E-03
DAV:   4    -0.672306186023E+02   -0.73093E-07   -0.42912E-06  1176   0.105E-02
   8 F= -.67230619E+02 E0= -.67230619E+02  d E =-.147273E-03
 curvature:  -0.24 expect dE=-0.490E-04 dE for cont linesearch -0.523E-07
 trial: gam= 0.29808 g(F)=  0.541E-04 g(S)=  0.153E-03 ort = 0.123E-04 (trialstep = 0.701E+00)
 search vector abs. value=  0.275E-03
 bond charge predicted
       N       E                     dE             d eps       ncg     rms          rms(c)
DAV:   1    -0.672309910250E+02   -0.37250E-03   -0.77211E-03  1248   0.468E-01    0.577E-02
DAV:   2    -0.672308392598E+02    0.15177E-03   -0.18272E-04   996   0.691E-02    0.300E-02
DAV:   3    -0.672307640048E+02    0.75255E-04   -0.17016E-04  1008   0.584E-02    0.859E-03
DAV:   4    -0.672307635452E+02    0.45957E-06   -0.64039E-06  1260   0.133E-02
   9 F= -.67230764E+02 E0= -.67230764E+02  d E =-.144943E-03
 ZBRENT: can't locate minimum, use default step
 trial-energy change:   -0.000145  1 .order   -0.000170   -0.000148   -0.000193
 step:   2.8037(harm=  2.8037)  dis= 0.00020  next Energy=   -67.231569 (dE=-0.950E-03)
 bond charge predicted
       N       E                     dE             d eps       ncg     rms          rms(c)
DAV:   1    -0.672331711388E+02   -0.24071E-02   -0.68058E-02  1032   0.140E+00    0.170E-01
DAV:   2    -0.672317659650E+02    0.14052E-02   -0.15665E-03  1008   0.208E-01    0.896E-02
DAV:   3    -0.672310864669E+02    0.67950E-03   -0.16711E-03  1176   0.182E-01    0.275E-02
DAV:   4    -0.672311043708E+02   -0.17904E-04   -0.68423E-05  1056   0.432E-02    0.133E-02
DAV:   5    -0.672311201792E+02   -0.15808E-04   -0.28100E-05   996   0.232E-02    0.710E-03
DAV:   6    -0.672311858473E+02   -0.65668E-04   -0.16869E-05   960   0.187E-02    0.742E-03
DAV:   7    -0.672312021162E+02   -0.16269E-04   -0.31759E-06  1128   0.761E-03    0.363E-03
DAV:   8    -0.672312248019E+02   -0.22686E-04   -0.96513E-06  1020   0.111E-02    0.365E-03
DAV:   9    -0.672312260129E+02   -0.12110E-05   -0.30961E-07  1032   0.279E-03    0.209E-03
DAV:  10    -0.672312267746E+02   -0.76168E-06   -0.14057E-06   864   0.555E-03
  10 F= -.67231227E+02 E0= -.67231227E+02  d E =-.608172E-03
 curvature:  -2.84 expect dE=-0.504E-03 dE for cont linesearch -0.471E-03
 ZBRENT: increasing intervall
 opt :   7.0093  next Energy=   -67.231867 (dE=-0.125E-02)
 bond charge predicted
       N       E                     dE             d eps       ncg     rms          rms(c)
DAV:   1    -0.672398228686E+02   -0.85969E-02   -0.27744E-01  1104   0.282E+00    0.345E-01
DAV:   2    -0.672343131353E+02    0.55097E-02   -0.64417E-03  1032   0.418E-01    0.181E-01
DAV:   3    -0.672317180793E+02    0.25951E-02   -0.65632E-03  1188   0.361E-01    0.542E-02
DAV:   4    -0.672317479232E+02   -0.29844E-04   -0.27395E-04  1164   0.861E-02    0.256E-02
DAV:   5    -0.672317549202E+02   -0.69971E-05   -0.10524E-04  1044   0.452E-02    0.138E-02
DAV:   6    -0.672319309945E+02   -0.17607E-03   -0.55094E-05   984   0.343E-02    0.131E-02
DAV:   7    -0.672319632695E+02   -0.32275E-04   -0.80025E-06  1152   0.123E-02    0.687E-03
DAV:   8    -0.672320170765E+02   -0.53807E-04   -0.29338E-05  1032   0.195E-02    0.605E-03
DAV:   9    -0.672320202020E+02   -0.31255E-05   -0.90483E-07  1056   0.480E-03    0.371E-03
DAV:  10    -0.672320216491E+02   -0.14471E-05   -0.43254E-06  1104   0.949E-03    0.295E-03
DAV:  11    -0.672320237078E+02   -0.20587E-05   -0.43900E-07   960   0.327E-03    0.155E-03
DAV:  12    -0.672320243477E+02   -0.63989E-06   -0.26945E-07   864   0.252E-03
  11 F= -.67232024E+02 E0= -.67232024E+02  d E =-.140575E-02
 curvature:  -3.86 expect dE=-0.118E-02 dE for cont linesearch -0.436E-03
 ZBRENT: increasing intervall
 opt :  15.4204  next Energy=   -67.233193 (dE=-0.257E-02)
 bond charge predicted
       N       E                     dE             d eps       ncg     rms          rms(c)
DAV:   1    -0.672647587650E+02   -0.32735E-01   -0.11280E+00  1044   0.569E+00    0.695E-01
DAV:   2    -0.672424834503E+02    0.22275E-01   -0.25501E-02  1020   0.841E-01    0.365E-01
DAV:   3    -0.672325451384E+02    0.99383E-02   -0.26862E-02  1248   0.729E-01    0.110E-01
DAV:   4    -0.672326089758E+02   -0.63837E-04   -0.11411E-03  1116   0.175E-01    0.520E-02
DAV:   5    -0.672326307369E+02   -0.21761E-04   -0.42324E-04  1080   0.915E-02    0.284E-02
DAV:   6    -0.672330466756E+02   -0.41594E-03   -0.21115E-04  1008   0.693E-02    0.263E-02
DAV:   7    -0.672331348399E+02   -0.88164E-04   -0.36132E-05  1164   0.265E-02    0.130E-02
DAV:   8    -0.672332540750E+02   -0.11924E-03   -0.10525E-04  1020   0.382E-02    0.125E-02
DAV:   9    -0.672332579838E+02   -0.39087E-05   -0.39981E-06  1272   0.993E-03    0.667E-03
DAV:  10    -0.672332581927E+02   -0.20897E-06   -0.13358E-05  1116   0.169E-02    0.510E-03
DAV:  11    -0.672332641752E+02   -0.59824E-05   -0.10937E-06   912   0.533E-03    0.354E-03
DAV:  12    -0.672332675547E+02   -0.33795E-05   -0.13291E-06   876   0.543E-03    0.710E-04
DAV:  13    -0.672332729458E+02   -0.53911E-05   -0.36708E-07   708   0.272E-03    0.759E-04
DAV:  14    -0.672332731045E+02   -0.15866E-06   -0.30639E-08   972   0.919E-04
  12 F= -.67233273E+02 E0= -.67233273E+02  d E =-.265450E-02
 curvature: -10.36 expect dE=-0.149E-01 dE for cont linesearch -0.518E-03
 ZBRENT: increasing intervall
 opt :  32.2426  next Energy=   -67.234256 (dE=-0.364E-02)
 bond charge predicted
       N       E                     dE             d eps       ncg     rms          rms(c)
DAV:   1    -0.673637569287E+02   -0.13048E+00   -0.46665E+00  1056   0.116E+01    0.142E+00
DAV:   2    -0.672728618742E+02    0.90895E-01   -0.10603E-01   984   0.170E+00    0.741E-01
DAV:   3    -0.672338427021E+02    0.39019E-01   -0.10816E-01  1272   0.147E+00    0.222E-01
DAV:   4    -0.672335077323E+02    0.33497E-03   -0.49943E-03  1140   0.360E-01    0.101E-01
DAV:   5    -0.672331879559E+02    0.31978E-03   -0.16913E-03  1032   0.185E-01    0.576E-02
DAV:   6    -0.672341805167E+02   -0.99256E-03   -0.79760E-04  1020   0.138E-01    0.487E-02
DAV:   7    -0.672343032897E+02   -0.12277E-03   -0.13040E-04  1128   0.509E-02    0.231E-02
DAV:   8    -0.672344741339E+02   -0.17084E-03   -0.31439E-04   996   0.661E-02    0.217E-02
DAV:   9    -0.672344657776E+02    0.83563E-05   -0.15937E-05  1236   0.196E-02    0.927E-03
DAV:  10    -0.672344522405E+02    0.13537E-04   -0.35902E-05  1080   0.279E-02    0.936E-03
DAV:  11    -0.672344726088E+02   -0.20368E-04   -0.57058E-06  1068   0.114E-02    0.447E-03
DAV:  12    -0.672344847452E+02   -0.12136E-04   -0.28013E-06  1008   0.787E-03    0.118E-03
DAV:  13    -0.672344991024E+02   -0.14357E-04   -0.90945E-07   828   0.353E-03    0.728E-04
DAV:  14    -0.672345001045E+02   -0.10021E-05   -0.46181E-08   972   0.946E-04    0.337E-04
DAV:  15    -0.672345004979E+02   -0.39347E-06   -0.36434E-08   732   0.773E-04
  13 F= -.67234500E+02 E0= -.67234500E+02  d E =-.388190E-02
 curvature: -19.65 expect dE=-0.140E+00 dE for cont linesearch -0.510E-04
 trial: gam=36.70681 g(F)=  0.572E-02 g(S)=  0.140E-02 ort = 0.267E-04 (trialstep = 0.508E-02)
 search vector abs. value=  0.380E+00
 bond charge predicted
       N       E                     dE             d eps       ncg     rms          rms(c)
DAV:   1    -0.672345559679E+02   -0.55863E-04   -0.52548E-04  1080   0.123E-01    0.150E-02
DAV:   2    -0.672345454229E+02    0.10545E-04   -0.11535E-05   984   0.174E-02    0.787E-03
DAV:   3    -0.672345399629E+02    0.54600E-05   -0.11765E-05  1104   0.152E-02    0.215E-03
DAV:   4    -0.672345400445E+02   -0.81607E-07   -0.34361E-07   888   0.323E-03
  14 F= -.67234540E+02 E0= -.67234540E+02  d E =-.395465E-04
 ZBRENT: can't locate minimum, use default step
 trial-energy change:   -0.000040  1 .order   -0.000042   -0.000041   -0.000043
 step:   0.0203(harm=  0.0203)  dis= 0.00008  next Energy=   -67.234681 (dE=-0.180E-03)
 bond charge predicted
       N       E                     dE             d eps       ncg     rms          rms(c)
DAV:   1    -0.672347968415E+02   -0.25688E-03   -0.46938E-03   972   0.367E-01    0.447E-02
DAV:   2    -0.672346995793E+02    0.97262E-04   -0.10247E-04   948   0.523E-02    0.235E-02
DAV:   3    -0.672346483713E+02    0.51208E-04   -0.10930E-04  1212   0.461E-02    0.663E-03
DAV:   4    -0.672346500079E+02   -0.16366E-05   -0.35815E-06   948   0.994E-03    0.308E-03
DAV:   5    -0.672346517510E+02   -0.17432E-05   -0.15654E-06   768   0.558E-03    0.164E-03
DAV:   6    -0.672346584399E+02   -0.66889E-05   -0.88905E-07   804   0.418E-03    0.148E-03
DAV:   7    -0.672346617358E+02   -0.32959E-05   -0.28257E-07   936   0.181E-03    0.891E-04
DAV:   8    -0.672346641978E+02   -0.24620E-05   -0.54080E-07   936   0.274E-03    0.809E-04
DAV:   9    -0.672346645177E+02   -0.31987E-06   -0.78374E-08   948   0.125E-03
  15 F= -.67234665E+02 E0= -.67234664E+02  d E =-.164020E-03
 curvature:  -0.73 expect dE=-0.473E-02 dE for cont linesearch -0.117E-03
 ZBRENT: increasing intervall
 opt :   0.0508  next Energy=   -67.234882 (dE=-0.381E-03)
 bond charge predicted
       N       E                     dE             d eps       ncg     rms          rms(c)
DAV:   1    -0.672354251320E+02   -0.76093E-03   -0.18997E-02  1140   0.738E-01    0.903E-02
DAV:   2    -0.672350518227E+02    0.37331E-03   -0.41457E-04  1020   0.104E-01    0.472E-02
DAV:   3    -0.672348600942E+02    0.19173E-03   -0.41921E-04  1116   0.907E-02    0.127E-02
DAV:   4    -0.672348622780E+02   -0.21838E-05   -0.13067E-05  1020   0.192E-02    0.583E-03
DAV:   5    -0.672348645711E+02   -0.22931E-05   -0.60685E-06   936   0.108E-02    0.305E-03
DAV:   6    -0.672348808934E+02   -0.16322E-04   -0.22395E-06   972   0.650E-03    0.267E-03
DAV:   7    -0.672348876812E+02   -0.67878E-05   -0.51414E-07   924   0.239E-03    0.179E-03
DAV:   8    -0.672348953815E+02   -0.77003E-05   -0.23513E-06  1128   0.525E-03    0.176E-03
DAV:   9    -0.672348962361E+02   -0.85459E-06   -0.45770E-07   984   0.311E-03
  16 F= -.67234896E+02 E0= -.67234896E+02  d E =-.395738E-03
 curvature:  -1.35 expect dE=-0.760E-02 dE for cont linesearch -0.202E-03
 ZBRENT: increasing intervall
 opt :   0.1117  next Energy=   -67.235337 (dE=-0.837E-03)
 bond charge predicted
       N       E                     dE             d eps       ncg     rms          rms(c)
DAV:   1    -0.672374456916E+02   -0.25503E-02   -0.76252E-02  1092   0.148E+00    0.181E-01
DAV:   2    -0.672359517387E+02    0.14940E-02   -0.16560E-03  1032   0.209E-01    0.948E-02
DAV:   3    -0.672352048291E+02    0.74691E-03   -0.16969E-03  1176   0.183E-01    0.258E-02
DAV:   4    -0.672352156098E+02   -0.10781E-04   -0.55103E-05   996   0.391E-02    0.118E-02
DAV:   5    -0.672352260713E+02   -0.10462E-04   -0.24440E-05   936   0.216E-02    0.631E-03
DAV:   6    -0.672352816557E+02   -0.55584E-04   -0.10309E-05   984   0.140E-02    0.546E-03
DAV:   7    -0.672353003021E+02   -0.18646E-04   -0.21467E-06  1104   0.497E-03    0.352E-03
DAV:   8    -0.672353212839E+02   -0.20982E-04   -0.77658E-06  1044   0.974E-03    0.317E-03
DAV:   9    -0.672353228851E+02   -0.16011E-05   -0.41656E-07  1008   0.306E-03    0.145E-03
DAV:  10    -0.672353240682E+02   -0.11831E-05   -0.10291E-06   888   0.482E-03    0.204E-03
DAV:  11    -0.672353245807E+02   -0.51251E-06   -0.27565E-07   828   0.249E-03
  17 F= -.67235325E+02 E0= -.67235325E+02  d E =-.824083E-03
 curvature:  -2.96 expect dE=-0.120E-01 dE for cont linesearch -0.351E-03
 ZBRENT: increasing intervall
 opt :   0.2336  next Energy=   -67.236044 (dE=-0.154E-02)
 bond charge predicted
       N       E                     dE             d eps       ncg     rms          rms(c)
DAV:   1    -0.672445717197E+02   -0.92477E-02   -0.30776E-01  1068   0.298E+00    0.363E-01
DAV:   2    -0.672385620086E+02    0.60097E-02   -0.66599E-03  1008   0.419E-01    0.190E-01
DAV:   3    -0.672356833376E+02    0.28787E-02   -0.68391E-03  1236   0.367E-01    0.520E-02
DAV:   4    -0.672357359031E+02   -0.52566E-04   -0.22869E-04   984   0.792E-02    0.236E-02
DAV:   5    -0.672357733176E+02   -0.37414E-04   -0.97722E-05   960   0.435E-02    0.128E-02
DAV:   6    -0.672359310607E+02   -0.15774E-03   -0.41652E-05  1008   0.288E-02    0.109E-02
DAV:   7    -0.672359881918E+02   -0.57131E-04   -0.90018E-06  1116   0.104E-02    0.701E-03
DAV:   8    -0.672360369769E+02   -0.48785E-04   -0.28016E-05   984   0.191E-02    0.629E-03
DAV:   9    -0.672360395134E+02   -0.25365E-05   -0.15688E-06  1044   0.601E-03    0.284E-03
DAV:  10    -0.672360423463E+02   -0.28329E-05   -0.40634E-06  1104   0.927E-03    0.426E-03
DAV:  11    -0.672360438548E+02   -0.15084E-05   -0.11331E-06   900   0.500E-03    0.920E-04
DAV:  12    -0.672360454627E+02   -0.16079E-05   -0.16509E-07   744   0.224E-03    0.288E-04
DAV:  13    -0.672360462332E+02   -0.77054E-06   -0.65457E-08   684   0.115E-03
  18 F= -.67236046E+02 E0= -.67236046E+02  d E =-.154574E-02
 curvature:  -6.06 expect dE=-0.104E-01 dE for cont linesearch -0.413E-03
 ZBRENT: increasing intervall
 opt :   0.4773  next Energy=   -67.236889 (dE=-0.239E-02)
 bond charge predicted
       N       E                     dE             d eps       ncg     rms          rms(c)
DAV:   1    -0.672715596532E+02   -0.35514E-01   -0.12544E+00  1044   0.603E+00    0.735E-01
DAV:   2    -0.672472509217E+02    0.24309E-01   -0.26815E-02   984   0.847E-01    0.384E-01
DAV:   3    -0.672361945590E+02    0.11056E-01   -0.27743E-02  1284   0.740E-01    0.105E-01
DAV:   4    -0.672362620588E+02   -0.67500E-04   -0.96312E-04   996   0.162E-01    0.470E-02
DAV:   5    -0.672362794612E+02   -0.17402E-04   -0.39013E-04   948   0.879E-02    0.262E-02
DAV:   6    -0.672367101022E+02   -0.43064E-03   -0.17373E-04   984   0.603E-02    0.217E-02
DAV:   7    -0.672368127931E+02   -0.10269E-03   -0.29346E-05  1116   0.200E-02    0.141E-02
DAV:   8    -0.672369078593E+02   -0.95066E-04   -0.96908E-05   984   0.368E-02    0.122E-02
DAV:   9    -0.672369065611E+02    0.12981E-05   -0.59255E-06  1188   0.116E-02    0.533E-03
DAV:  10    -0.672369131809E+02   -0.66197E-05   -0.13058E-05  1044   0.165E-02    0.783E-03
DAV:  11    -0.672369162322E+02   -0.30513E-05   -0.33223E-06  1080   0.845E-03    0.185E-03
DAV:  12    -0.672369233801E+02   -0.71479E-05   -0.61212E-07   732   0.378E-03    0.609E-04
DAV:  13    -0.672369251321E+02   -0.17520E-05   -0.13744E-07   732   0.168E-03    0.637E-04
DAV:  14    -0.672369253316E+02   -0.19954E-06   -0.29708E-08   768   0.849E-04
  19 F= -.67236925E+02 E0= -.67236925E+02  d E =-.242483E-02
 curvature: -12.38 expect dE=-0.281E-02 dE for cont linesearch -0.149E-03
 ZBRENT: increasing intervall
 opt :   0.9648  next Energy=   -67.236529 (dE=-0.203E-02)
 bond charge predicted
       N       E                     dE             d eps       ncg     rms          rms(c)
DAV:   1    -0.673796161223E+02   -0.14269E+00   -0.52102E+00  1092   0.124E+01    0.151E+00
DAV:   2    -0.672796583229E+02    0.99958E-01   -0.11303E-01   996   0.172E+00    0.781E-01
DAV:   3    -0.672358509346E+02    0.43807E-01   -0.11105E-01  1296   0.148E+00    0.210E-01
DAV:   4    -0.672357115855E+02    0.13935E-03   -0.41601E-03  1020   0.332E-01    0.900E-02
DAV:   5    -0.672355008697E+02    0.21072E-03   -0.15539E-03  1164   0.178E-01    0.518E-02
DAV:   6    -0.672363636287E+02   -0.86276E-03   -0.58864E-04   948   0.115E-01    0.401E-02
DAV:   7    -0.672365619970E+02   -0.19837E-03   -0.10586E-04  1092   0.386E-02    0.263E-02
DAV:   8    -0.672366250233E+02   -0.63026E-04   -0.28207E-04   996   0.638E-02    0.215E-02
DAV:   9    -0.672365881165E+02    0.36907E-04   -0.21625E-05  1176   0.221E-02    0.775E-03
DAV:  10    -0.672365924958E+02   -0.43793E-05   -0.31715E-05  1008   0.257E-02    0.130E-02
DAV:  11    -0.672366060420E+02   -0.13546E-04   -0.12428E-05  1080   0.163E-02    0.172E-03
DAV:  12    -0.672366269532E+02   -0.20911E-04   -0.14110E-06   960   0.531E-03    0.129E-03
DAV:  13    -0.672366299970E+02   -0.30438E-05   -0.15334E-07   768   0.148E-03    0.782E-04
DAV:  14    -0.672366308543E+02   -0.85736E-06   -0.13043E-07   708   0.162E-03
  20 F= -.67236631E+02 E0= -.67236631E+02  d E =-.213036E-02
 curvature:  32.95 expect dE= 0.340E+00 dE for cont linesearch  0.931E-03
 ZBRENT: bracketing found
 ZBRENT: interpolating
 opt :   0.6697  next Energy=   -67.237131 (dE=-0.263E-02)
 bond charge predicted
       N       E                     dE             d eps       ncg     rms          rms(c)
DAV:   1    -0.672910786004E+02   -0.54449E-01   -0.19165E+00  1080   0.739E+00    0.904E-01
DAV:   2    -0.672544132774E+02    0.36665E-01   -0.44552E-02  1080   0.107E+00    0.477E-01
DAV:   3    -0.672376245554E+02    0.16789E-01   -0.44565E-02  1200   0.931E-01    0.132E-01
DAV:   4    -0.672371314675E+02    0.49309E-03   -0.13791E-03   972   0.196E-01    0.617E-02
DAV:   5    -0.672366392341E+02    0.49223E-03   -0.63153E-04   984   0.111E-01    0.327E-02
DAV:   6    -0.672366340033E+02    0.52308E-05   -0.14910E-04   996   0.645E-02    0.307E-02
DAV:   7    -0.672366921286E+02   -0.58125E-04   -0.30174E-05  1044   0.221E-02    0.193E-02
DAV:   8    -0.672368699027E+02   -0.17777E-03   -0.13018E-04  1020   0.464E-02    0.189E-02
DAV:   9    -0.672369262728E+02   -0.56370E-04   -0.10385E-05  1176   0.151E-02    0.922E-03
DAV:  10    -0.672370560052E+02   -0.12973E-03   -0.27217E-05  1104   0.235E-02    0.106E-02
DAV:  11    -0.672370975268E+02   -0.41522E-04   -0.46912E-06  1128   0.100E-02    0.352E-03
DAV:  12    -0.672371236327E+02   -0.26106E-04   -0.18026E-06   888   0.580E-03    0.657E-04
DAV:  13    -0.672371305757E+02   -0.69429E-05   -0.22925E-07   708   0.169E-03    0.786E-04
DAV:  14    -0.672371317064E+02   -0.11307E-05   -0.51555E-08   732   0.976E-04    0.211E-04
DAV:  15    -0.672371318980E+02   -0.19161E-06   -0.11039E-08   768   0.479E-04
  21 F= -.67237132E+02 E0= -.67237132E+02  d E =-.263140E-02
 curvature:  -7.27 expect dE=-0.153E-01 dE for cont linesearch -0.134E-06
 trial: gam= 0.78603 g(F)=  0.852E-03 g(S)=  0.126E-02 ort =-0.836E-04 (trialstep = 0.138E+00)
 search vector abs. value=  0.237E+00
 bond charge predicted
       N       E                     dE             d eps       ncg     rms          rms(c)
DAV:   1    -0.672444649984E+02   -0.73333E-02   -0.25251E-01  1080   0.269E+00    0.328E-01
DAV:   2    -0.672394813479E+02    0.49837E-02   -0.54592E-03  1020   0.383E-01    0.172E-01
DAV:   3    -0.672371003608E+02    0.23810E-02   -0.57578E-03  1212   0.339E-01    0.500E-02
DAV:   4    -0.672371400641E+02   -0.39703E-04   -0.23343E-04   972   0.793E-02    0.219E-02
DAV:   5    -0.672371507950E+02   -0.10731E-04   -0.89536E-05  1032   0.421E-02    0.128E-02
DAV:   6    -0.672373083290E+02   -0.15753E-03   -0.47897E-05   984   0.317E-02    0.123E-02
DAV:   7    -0.672373431016E+02   -0.34773E-04   -0.82550E-06  1104   0.120E-02    0.624E-03
DAV:   8    -0.672373874112E+02   -0.44310E-04   -0.27206E-05  1020   0.192E-02    0.666E-03
DAV:   9    -0.672373895800E+02   -0.21688E-05   -0.12271E-06   972   0.551E-03    0.324E-03
DAV:  10    -0.672373917485E+02   -0.21686E-05   -0.42479E-06  1068   0.947E-03    0.336E-03
DAV:  11    -0.672373940956E+02   -0.23470E-05   -0.58829E-07   852   0.371E-03    0.160E-03
DAV:  12    -0.672373947257E+02   -0.63013E-06   -0.25261E-07   876   0.253E-03
  22 F= -.67237395E+02 E0= -.67237395E+02  d E =-.262828E-03
 ZBRENT: can't locate minimum, use default step
 trial-energy change:   -0.000263  1 .order   -0.000272   -0.000282   -0.000263
 step:   0.5520(harm=  2.0237)  dis= 0.00036  next Energy=   -67.239198 (dE=-0.207E-02)
 bond charge predicted
       N       E                     dE             d eps       ncg     rms          rms(c)
DAV:   1    -0.673025642125E+02   -0.65170E-01   -0.23210E+00  1056   0.820E+00    0.997E-01
DAV:   2    -0.672574712508E+02    0.45093E-01   -0.49525E-02   972   0.116E+00    0.522E-01
DAV:   3    -0.672372960438E+02    0.20175E-01   -0.52113E-02  1236   0.102E+00    0.152E-01
DAV:   4    -0.672373244457E+02   -0.28402E-04   -0.22654E-03   972   0.245E-01    0.649E-02
DAV:   5    -0.672372540022E+02    0.70443E-04   -0.81786E-04  1104   0.129E-01    0.389E-02
DAV:   6    -0.672378876486E+02   -0.63365E-03   -0.38796E-04   948   0.945E-02    0.351E-02
DAV:   7    -0.672379950290E+02   -0.10738E-03   -0.70036E-05  1128   0.358E-02    0.172E-02
DAV:   8    -0.672380793224E+02   -0.84293E-04   -0.17896E-04   996   0.506E-02    0.181E-02
DAV:   9    -0.672380699834E+02    0.93389E-05   -0.12300E-05  1200   0.166E-02    0.666E-03
DAV:  10    -0.672380662473E+02    0.37361E-05   -0.20922E-05  1032   0.211E-02    0.839E-03
DAV:  11    -0.672380783268E+02   -0.12080E-04   -0.42165E-06  1020   0.968E-03    0.303E-03
DAV:  12    -0.672380851817E+02   -0.68549E-05   -0.13168E-06   720   0.571E-03    0.917E-04
DAV:  13    -0.672380900049E+02   -0.48232E-05   -0.37861E-07   720   0.264E-03    0.551E-04
DAV:  14    -0.672380902661E+02   -0.26121E-06   -0.32032E-08   828   0.893E-04
  23 F= -.67238090E+02 E0= -.67238090E+02  d E =-.958368E-03
 curvature: -45.83 expect dE=-0.732E-01 dE for cont linesearch -0.451E-03
 ZBRENT: increasing intervall
 opt :   1.3800  next Energy=   -67.239043 (dE=-0.191E-02)
 bond charge predicted
       N       E                     dE             d eps       ncg     rms          rms(c)
DAV:   1    -0.675068368964E+02   -0.26875E+00   -0.97373E+00  1008   0.169E+01    0.206E+00
DAV:   2    -0.673199286422E+02    0.18691E+00   -0.20811E-01   960   0.238E+00    0.107E+00
DAV:   3    -0.672396899835E+02    0.80239E-01   -0.21198E-01  1224   0.205E+00    0.307E-01
DAV:   4    -0.672388481225E+02    0.84186E-03   -0.98858E-03  1056   0.505E-01    0.127E-01
DAV:   5    -0.672380566324E+02    0.79149E-03   -0.32441E-03  1116   0.262E-01    0.778E-02
DAV:   6    -0.672391878895E+02   -0.11313E-02   -0.13559E-03   936   0.182E-01    0.645E-02
DAV:   7    -0.672392962106E+02   -0.10832E-03   -0.25593E-04  1080   0.697E-02    0.299E-02
DAV:   8    -0.672392703369E+02    0.25874E-04   -0.51634E-04   972   0.869E-02    0.320E-02
DAV:   9    -0.672392055576E+02    0.64779E-04   -0.60323E-05  1116   0.361E-02    0.712E-03
DAV:  10    -0.672391864130E+02    0.19145E-04   -0.40969E-05  1032   0.297E-02    0.144E-02
DAV:  11    -0.672392145936E+02   -0.28181E-04   -0.18155E-05   996   0.193E-02    0.263E-03
DAV:  12    -0.672392339664E+02   -0.19373E-04   -0.26195E-06  1020   0.790E-03    0.271E-03
DAV:  13    -0.672392412101E+02   -0.72437E-05   -0.89917E-07   708   0.403E-03    0.595E-04
DAV:  14    -0.672392419149E+02   -0.70474E-06   -0.15557E-07   888   0.195E-03
  24 F= -.67239242E+02 E0= -.67239242E+02  d E =-.211002E-02
 curvature: -96.71 expect dE=-0.243E+00 dE for cont linesearch -0.599E-03
 ZBRENT: increasing intervall
 opt :   3.0360  next Energy=   -67.240724 (dE=-0.359E-02)
 bond charge predicted
       N       E                     dE             d eps       ncg     rms          rms(c)
DAV:   1    -0.684183297806E+02   -0.11791E+01   -0.43118E+01  1008   0.361E+01    0.464E+00
DAV:   2    -0.675560662032E+02    0.86226E+00   -0.10320E+00   996   0.522E+00    0.212E+00
DAV:   3    -0.672652719911E+02    0.29079E+00   -0.64462E-01  1140   0.359E+00    0.586E-01
DAV:   4    -0.672464326362E+02    0.18839E-01   -0.33914E-02  1152   0.903E-01    0.268E-01
DAV:   5    -0.672437874689E+02    0.26452E-02   -0.51051E-03  1128   0.359E-01    0.112E-01
DAV:   6    -0.672430103325E+02    0.77714E-03   -0.40805E-03   936   0.281E-01    0.923E-02
DAV:   7    -0.672422854694E+02    0.72486E-03   -0.72510E-04   936   0.117E-01    0.253E-02
DAV:   8    -0.672414694112E+02    0.81606E-03   -0.38146E-04  1008   0.635E-02    0.336E-02
DAV:   9    -0.672412036631E+02    0.26575E-03   -0.99547E-05  1020   0.492E-02    0.139E-02
DAV:  10    -0.672412300185E+02   -0.26355E-04   -0.15407E-05  1080   0.190E-02    0.589E-03
DAV:  11    -0.672413054689E+02   -0.75450E-04   -0.78297E-06   972   0.117E-02    0.211E-03
DAV:  12    -0.672413322999E+02   -0.26831E-04   -0.25298E-06  1104   0.599E-03    0.503E-04
DAV:  13    -0.672413349102E+02   -0.26103E-05   -0.15894E-07   816   0.143E-03    0.335E-04
DAV:  14    -0.672413356252E+02   -0.71501E-06   -0.96913E-08   696   0.905E-04
  25 F= -.67241336E+02 E0= -.67241336E+02  d E =-.420373E-02
 curvature: ****** expect dE=-0.251E+01 dE for cont linesearch -0.935E-03
 ZBRENT: increasing intervall
 opt :   6.3480  next Energy=   -67.243697 (dE=-0.657E-02)
 bond charge predicted
       N       E                     dE             d eps       ncg     rms          rms(c)
DAV:   1    -0.731366283489E+02   -0.58953E+01   -0.21699E+02  1080   0.835E+01    0.115E+01
DAV:   2    -0.684869194375E+02    0.46497E+01   -0.81572E+00   936   0.127E+01    0.446E+00
DAV:   3    -0.674209386587E+02    0.10660E+01   -0.22405E+00  1260   0.676E+00    0.137E+00
DAV:   4    -0.672940258038E+02    0.12691E+00   -0.25243E-01  1188   0.226E+00    0.570E-01
DAV:   5    -0.672752162497E+02    0.18810E-01   -0.16962E-02  1176   0.724E-01    0.240E-01
DAV:   6    -0.672573119117E+02    0.17904E-01   -0.14164E-02   972   0.546E-01    0.202E-01
DAV:   7    -0.672465570208E+02    0.10755E-01   -0.35540E-03   924   0.295E-01    0.829E-02
DAV:   8    -0.672434987845E+02    0.30582E-02   -0.16177E-03  1020   0.155E-01    0.606E-02
DAV:   9    -0.672429017049E+02    0.59708E-03   -0.28822E-04   948   0.939E-02    0.253E-02
DAV:  10    -0.672429222891E+02   -0.20584E-04   -0.33860E-05  1236   0.319E-02    0.107E-02
DAV:  11    -0.672430016108E+02   -0.79322E-04   -0.18393E-05   960   0.199E-02    0.280E-03
DAV:  12    -0.672430141966E+02   -0.12586E-04   -0.33608E-06  1188   0.842E-03    0.256E-03
DAV:  13    -0.672430173437E+02   -0.31471E-05   -0.72286E-07   744   0.366E-03    0.445E-04
DAV:  14    -0.672430176868E+02   -0.34304E-06   -0.12109E-07   840   0.168E-03
  26 F= -.67243018E+02 E0= -.67243018E+02  d E =-.588579E-02
 curvature: ****** expect dE=-0.307E+02 dE for cont linesearch -0.516E-02
 ZBRENT: bracketing found
 ZBRENT: interpolating
 opt :   4.3721  next Energy=   -67.241978 (dE=-0.485E-02)
 bond charge predicted
       N       E                     dE             d eps       ncg     rms          rms(c)
DAV:   1    -0.695304754649E+02   -0.22875E+01   -0.79623E+01  1248   0.464E+01    0.565E+00
DAV:   2    -0.680791328403E+02    0.14513E+01   -0.26636E+00  1128   0.776E+00    0.311E+00
DAV:   3    -0.673044266863E+02    0.77471E+00   -0.20255E+00  1236   0.635E+00    0.901E-01
DAV:   4    -0.672799031392E+02    0.24524E-01   -0.81130E-02  1116   0.148E+00    0.407E-01
DAV:   5    -0.672480956414E+02    0.31807E-01   -0.38544E-02  1188   0.866E-01    0.225E-01
DAV:   6    -0.672377410899E+02    0.10355E-01   -0.52721E-03  1164   0.429E-01    0.219E-01
DAV:   7    -0.672354976376E+02    0.22435E-02   -0.20088E-03   984   0.188E-01    0.165E-01
DAV:   8    -0.672367750411E+02   -0.12774E-02   -0.94008E-03  1056   0.404E-01    0.190E-01
DAV:   9    -0.672385917286E+02   -0.18167E-02   -0.92897E-04  1140   0.145E-01    0.825E-02
DAV:  10    -0.672417024002E+02   -0.31107E-02   -0.12303E-03   984   0.151E-01    0.325E-02
DAV:  11    -0.672425979471E+02   -0.89555E-03   -0.11893E-04   984   0.435E-02    0.255E-02
DAV:  12    -0.672427598291E+02   -0.16188E-03   -0.31651E-05  1020   0.248E-02    0.787E-03
DAV:  13    -0.672428281693E+02   -0.68340E-04   -0.91992E-06   936   0.125E-02    0.147E-03
DAV:  14    -0.672428330488E+02   -0.48795E-05   -0.29659E-07   852   0.273E-03    0.123E-03
DAV:  15    -0.672428349371E+02   -0.18883E-05   -0.13742E-07   696   0.185E-03    0.307E-04
DAV:  16    -0.672428350249E+02   -0.87814E-07   -0.12982E-08   924   0.670E-04
  27 F= -.67242835E+02 E0= -.67242835E+02  d E =-.570313E-02
 curvature: -75.16 expect dE=-0.173E+01 dE for cont linesearch -0.383E-04
 trial: gam=11.76405 g(F)=  0.745E-02 g(S)=  0.155E-01 ort = 0.347E-03 (trialstep = 0.711E-02)
 search vector abs. value=  0.328E+02
 bond charge predicted
       N       E                     dE             d eps       ncg     rms          rms(c)
DAV:   1    -0.672456121643E+02   -0.27772E-02   -0.91516E-02  1056   0.162E+00    0.199E-01
DAV:   2    -0.672437877818E+02    0.18244E-02   -0.20339E-03  1092   0.236E-01    0.104E-01
DAV:   3    -0.672428950013E+02    0.89278E-03   -0.21035E-03  1188   0.206E-01    0.303E-02
DAV:   4    -0.672429060060E+02   -0.11005E-04   -0.95840E-05  1116   0.505E-02    0.127E-02
DAV:   5    -0.672429123042E+02   -0.62982E-05   -0.34404E-05  1020   0.262E-02    0.809E-03
DAV:   6    -0.672429789126E+02   -0.66608E-04   -0.18790E-05   996   0.201E-02    0.846E-03
DAV:   7    -0.672429965108E+02   -0.17598E-04   -0.41095E-06  1104   0.846E-03    0.391E-03
DAV:   8    -0.672430209282E+02   -0.24417E-04   -0.13068E-05  1008   0.131E-02    0.506E-03
DAV:   9    -0.672430229800E+02   -0.20518E-05   -0.81832E-07   996   0.436E-03    0.211E-03
DAV:  10    -0.672430255718E+02   -0.25918E-05   -0.14771E-06   816   0.565E-03    0.143E-03
DAV:  11    -0.672430263155E+02   -0.74372E-06   -0.16280E-07   720   0.213E-03
  28 F= -.67243026E+02 E0= -.67243026E+02  d E =-.191291E-03
 ZBRENT: can't locate minimum, use default step
 trial-energy change:   -0.000191  1 .order   -0.000197   -0.000192   -0.000202
 step:   0.0284(harm=  0.0284)  dis= 0.00000  next Energy=   -67.243678 (dE=-0.843E-03)
 bond charge predicted
       N       E                     dE             d eps       ncg     rms          rms(c)
DAV:   1    -0.672670639928E+02   -0.24038E-01   -0.83381E-01  1044   0.491E+00    0.601E-01
DAV:   2    -0.672506558660E+02    0.16408E-01   -0.18112E-02  1104   0.711E-01    0.316E-01
DAV:   3    -0.672431269368E+02    0.75289E-02   -0.19174E-02  1188   0.623E-01    0.915E-02
DAV:   4    -0.672431756100E+02   -0.48673E-04   -0.89571E-04  1008   0.154E-01    0.380E-02
DAV:   5    -0.672431587564E+02    0.16854E-04   -0.31111E-04  1032   0.801E-02    0.245E-02
DAV:   6    -0.672434779355E+02   -0.31918E-03   -0.16790E-04   960   0.621E-02    0.250E-02
DAV:   7    -0.672435311727E+02   -0.53237E-04   -0.35436E-05  1044   0.258E-02    0.113E-02
DAV:   8    -0.672435882512E+02   -0.57078E-04   -0.87780E-05  1032   0.358E-02    0.143E-02
DAV:   9    -0.672435900788E+02   -0.18276E-05   -0.79493E-06  1176   0.132E-02    0.479E-03
DAV:  10    -0.672435957462E+02   -0.56674E-05   -0.73620E-06   984   0.126E-02    0.385E-03
DAV:  11    -0.672435981237E+02   -0.23775E-05   -0.89197E-07   792   0.465E-03    0.171E-03
DAV:  12    -0.672435986505E+02   -0.52679E-06   -0.33690E-07   768   0.293E-03
  29 F= -.67243599E+02 E0= -.67243599E+02  d E =-.763626E-03
 curvature: -26.37 expect dE=-0.626E+00 dE for cont linesearch -0.562E-03
 ZBRENT: increasing intervall
 opt :   0.0711  next Energy=   -67.244645 (dE=-0.181E-02)
 bond charge predicted
       N       E                     dE             d eps       ncg     rms          rms(c)
DAV:   1    -0.673406412382E+02   -0.97043E-01   -0.34334E+00  1044   0.100E+01    0.122E+00
DAV:   2    -0.672738384266E+02    0.66803E-01   -0.74583E-02  1068   0.144E+00    0.640E-01
DAV:   3    -0.672443460563E+02    0.29492E-01   -0.78100E-02  1248   0.126E+00    0.187E-01
DAV:   4    -0.672442339463E+02    0.11211E-03   -0.39552E-03   960   0.321E-01    0.761E-02
DAV:   5    -0.672439925677E+02    0.24138E-03   -0.12798E-03   984   0.165E-01    0.508E-02
DAV:   6    -0.672446275587E+02   -0.63499E-03   -0.64353E-04   960   0.125E-01    0.488E-02
DAV:   7    -0.672446831654E+02   -0.55607E-04   -0.14356E-04  1020   0.524E-02    0.217E-02
DAV:   8    -0.672447103355E+02   -0.27170E-04   -0.27501E-04   984   0.654E-02    0.260E-02
DAV:   9    -0.672447051360E+02    0.51996E-05   -0.34992E-05  1248   0.276E-02    0.627E-03
DAV:  10    -0.672447159852E+02   -0.10849E-04   -0.17536E-05   960   0.198E-02    0.656E-03
DAV:  11    -0.672447217378E+02   -0.57526E-05   -0.33604E-06  1032   0.862E-03    0.233E-03
DAV:  12    -0.672447230077E+02   -0.12699E-05   -0.56985E-07   804   0.385E-03    0.469E-04
DAV:  13    -0.672447239539E+02   -0.94622E-06   -0.10618E-07   708   0.155E-03
  30 F= -.67244724E+02 E0= -.67244724E+02  d E =-.188893E-02
 curvature: -49.08 expect dE=-0.122E+01 dE for cont linesearch -0.937E-03
 ZBRENT: increasing intervall
 opt :   0.1564  next Energy=   -67.246737 (dE=-0.390E-02)
 bond charge predicted
       N       E                     dE             d eps       ncg     rms          rms(c)
DAV:   1    -0.676485388082E+02   -0.40382E+00   -0.14574E+01  1032   0.208E+01    0.255E+00
DAV:   2    -0.673679873243E+02    0.28055E+00   -0.32054E-01  1008   0.297E+00    0.131E+00
DAV:   3    -0.672510275448E+02    0.11696E+00   -0.31163E-01  1248   0.251E+00    0.375E-01
DAV:   4    -0.672485042056E+02    0.25233E-02   -0.16145E-02   972   0.641E-01    0.149E-01
DAV:   5    -0.672468977017E+02    0.16065E-02   -0.46757E-03  1080   0.324E-01    0.997E-02
DAV:   6    -0.672473375628E+02   -0.43986E-03   -0.22181E-03   912   0.236E-01    0.911E-02
DAV:   7    -0.672470463090E+02    0.29125E-03   -0.43723E-04  1008   0.930E-02    0.396E-02
DAV:   8    -0.672468044755E+02    0.24183E-03   -0.71453E-04   936   0.106E-01    0.424E-02
DAV:   9    -0.672467661132E+02    0.38362E-04   -0.11926E-04  1188   0.512E-02    0.758E-03
DAV:  10    -0.672467900459E+02   -0.23933E-04   -0.24119E-05   924   0.241E-02    0.983E-03
DAV:  11    -0.672468010853E+02   -0.11039E-04   -0.86931E-06  1008   0.136E-02    0.189E-03
DAV:  12    -0.672468043515E+02   -0.32662E-05   -0.65379E-07   708   0.439E-03    0.907E-04
DAV:  13    -0.672468056331E+02   -0.12816E-05   -0.13596E-07   684   0.180E-03    0.405E-04
DAV:  14    -0.672468057106E+02   -0.77470E-07   -0.24991E-08   828   0.835E-04
  31 F= -.67246806E+02 E0= -.67246806E+02  d E =-.397069E-02
 curvature: ****** expect dE=-0.290E+01 dE for cont linesearch -0.142E-02
 ZBRENT: increasing intervall
 opt :   0.3270  next Energy=   -67.249713 (dE=-0.688E-02)
 bond charge predicted
       N       E                     dE             d eps       ncg     rms          rms(c)
DAV:   1    -0.690770274742E+02   -0.18302E+01   -0.65972E+01  1008   0.452E+01    0.594E+00
DAV:   2    -0.677098314622E+02    0.13672E+01   -0.17077E+00   960   0.675E+00    0.258E+00
DAV:   3    -0.672996260380E+02    0.41021E+00   -0.87247E-01  1260   0.423E+00    0.730E-01
DAV:   4    -0.672625598612E+02    0.37066E-01   -0.61008E-02  1116   0.118E+00    0.335E-01
DAV:   5    -0.672568150474E+02    0.57448E-02   -0.63103E-03   984   0.420E-01    0.144E-01
DAV:   6    -0.672522557768E+02    0.45593E-02   -0.69325E-03   984   0.372E-01    0.136E-01
DAV:   7    -0.672503409396E+02    0.19148E-02   -0.13079E-03   948   0.177E-01    0.406E-02
DAV:   8    -0.672498971540E+02    0.44379E-03   -0.32616E-04  1044   0.696E-02    0.374E-02
DAV:   9    -0.672499185205E+02   -0.21367E-04   -0.10111E-04   996   0.535E-02    0.933E-03
DAV:  10    -0.672499435403E+02   -0.25020E-04   -0.96235E-06  1104   0.167E-02    0.416E-03
DAV:  11    -0.672499598736E+02   -0.16333E-04   -0.30627E-06   972   0.900E-03    0.114E-03
DAV:  12    -0.672499641892E+02   -0.43156E-05   -0.45502E-07   804   0.348E-03    0.411E-04
DAV:  13    -0.672499650201E+02   -0.83089E-06   -0.60075E-08   744   0.125E-03
  32 F= -.67249965E+02 E0= -.67249965E+02  d E =-.713000E-02
 curvature: ****** expect dE=-0.717E+01 dE for cont linesearch -0.815E-03
 ZBRENT: increasing intervall
 opt :   0.6683  next Energy=   -67.250386 (dE=-0.755E-02)
 bond charge predicted
       N       E                     dE             d eps       ncg     rms          rms(c)
DAV:   1    -0.768340603587E+02   -0.95841E+01   -0.35923E+02   960   0.109E+02    0.151E+01
DAV:   2    -0.689589766364E+02    0.78751E+01   -0.23970E+01   996   0.176E+01    0.564E+00
DAV:   3    -0.674746480707E+02    0.14843E+01   -0.33912E+00  1272   0.843E+00    0.176E+00
DAV:   4    -0.672927589304E+02    0.18189E+00   -0.33794E-01  1320   0.274E+00    0.699E-01
DAV:   5    -0.672689583999E+02    0.23801E-01   -0.26973E-02  1260   0.920E-01    0.339E-01
DAV:   6    -0.672534876196E+02    0.15471E-01   -0.14370E-02  1284   0.589E-01    0.157E-01
DAV:   7    -0.672496283393E+02    0.38593E-02   -0.34767E-03  1200   0.332E-01    0.789E-02
DAV:   8    -0.672496131215E+02    0.15218E-04   -0.27490E-03  1068   0.215E-01    0.419E-02
DAV:   9    -0.672502782396E+02   -0.66512E-03   -0.54667E-04  1008   0.102E-01    0.237E-02
DAV:  10    -0.672502897170E+02   -0.11477E-04   -0.60198E-05  1272   0.354E-02    0.406E-03
DAV:  11    -0.672503632388E+02   -0.73522E-04   -0.13937E-05  1008   0.152E-02    0.208E-03
DAV:  12    -0.672503651665E+02   -0.19276E-05   -0.54014E-07  1020   0.387E-03    0.599E-04
DAV:  13    -0.672503657537E+02   -0.58726E-06   -0.83302E-08   912   0.165E-03
  33 F= -.67250366E+02 E0= -.67250366E+02  d E =-.753073E-02
 curvature: ****** expect dE=-0.531E+01 dE for cont linesearch -0.110E-02
 ZBRENT: bracketing found
 ZBRENT: interpolating
 opt :   0.4575  next Energy=   -67.250691 (dE=-0.786E-02)
 bond charge predicted
       N       E                     dE             d eps       ncg     rms          rms(c)
DAV:   1    -0.713837266782E+02   -0.41334E+01   -0.13945E+02  1272   0.612E+01    0.739E+00
DAV:   2    -0.688122416420E+02    0.25715E+01   -0.45152E+00  1080   0.108E+01    0.419E+00
DAV:   3    -0.673589154648E+02    0.14533E+01   -0.37883E+00  1104   0.881E+00    0.127E+00
DAV:   4    -0.673170795879E+02    0.41836E-01   -0.18711E-01  1056   0.223E+00    0.538E-01
DAV:   5    -0.672563742795E+02    0.60705E-01   -0.78774E-02  1272   0.125E+00    0.337E-01
DAV:   6    -0.672417177363E+02    0.14657E-01   -0.11334E-02  1140   0.643E-01    0.291E-01
DAV:   7    -0.672397520118E+02    0.19657E-02   -0.48232E-03  1128   0.311E-01    0.241E-01
DAV:   8    -0.672498424953E+02   -0.10090E-01   -0.11941E-02   936   0.493E-01    0.193E-01
DAV:   9    -0.672501046343E+02   -0.26214E-03   -0.66448E-04  1008   0.129E-01    0.118E-01
DAV:  10    -0.672509620558E+02   -0.85742E-03   -0.86208E-04   972   0.138E-01    0.127E-02
DAV:  11    -0.672512498280E+02   -0.28777E-03   -0.49560E-05   960   0.426E-02    0.153E-02
DAV:  12    -0.672513045757E+02   -0.54748E-04   -0.74790E-06   984   0.161E-02    0.610E-03
DAV:  13    -0.672513105828E+02   -0.60070E-05   -0.48557E-06  1152   0.105E-02    0.201E-03
DAV:  14    -0.672513114660E+02   -0.88321E-06   -0.28926E-07   864   0.279E-03
  34 F= -.67251311E+02 E0= -.67251311E+02  d E =-.847644E-02
 curvature: -73.52 expect dE=-0.282E+01 dE for cont linesearch -0.330E-04
 trial: gam= 0.41346 g(F)=  0.498E-02 g(S)=  0.333E-01 ort = 0.384E-02 (trialstep = 0.972E-01)
 search vector abs. value=  0.565E+01
 bond charge predicted
       N       E                     dE             d eps       ncg     rms          rms(c)
DAV:   1    -0.673370467561E+02   -0.85736E-01   -0.28607E+00  1128   0.922E+00    0.115E+00
DAV:   2    -0.672790013582E+02    0.58045E-01   -0.71233E-02  1080   0.140E+00    0.595E-01
DAV:   3    -0.672541894252E+02    0.24812E-01   -0.65902E-02  1248   0.118E+00    0.171E-01
DAV:   4    -0.672538770860E+02    0.31234E-03   -0.36145E-03  1104   0.309E-01    0.692E-02
DAV:   5    -0.672536305975E+02    0.24649E-03   -0.11265E-03  1224   0.156E-01    0.490E-02
DAV:   6    -0.672543312838E+02   -0.70069E-03   -0.58815E-04  1032   0.122E-01    0.481E-02
DAV:   7    -0.672544743813E+02   -0.14310E-03   -0.82898E-05  1044   0.426E-02    0.240E-02
DAV:   8    -0.672547153865E+02   -0.24101E-03   -0.16467E-04   972   0.531E-02    0.142E-02
DAV:   9    -0.672547570361E+02   -0.41650E-04   -0.10557E-05  1140   0.163E-02    0.608E-03
DAV:  10    -0.672547777387E+02   -0.20703E-04   -0.69880E-06   984   0.123E-02    0.184E-03
DAV:  11    -0.672547826554E+02   -0.49166E-05   -0.58417E-07   804   0.391E-03    0.100E-03
DAV:  12    -0.672547831091E+02   -0.45370E-06   -0.10897E-07  1056   0.175E-03
  35 F= -.67254783E+02 E0= -.67254783E+02  d E =-.347164E-02
 ZBRENT: can't locate minimum, use default step
 trial-energy change:   -0.003472  1 .order   -0.003467   -0.003876   -0.003058
 step:   0.3887(harm=  0.4604)  dis= 0.00249  next Energy=   -67.260492 (dE=-0.918E-02)
 bond charge predicted
       N       E                     dE             d eps       ncg     rms          rms(c)
DAV:   1    -0.680509751951E+02   -0.79619E+00   -0.27840E+01  1116   0.293E+01    0.376E+00
DAV:   2    -0.674746377892E+02    0.57634E+00   -0.76335E-01  1080   0.448E+00    0.178E+00
DAV:   3    -0.672728678687E+02    0.20177E+00   -0.48231E-01  1260   0.319E+00    0.475E-01
DAV:   4    -0.672612992148E+02    0.11569E-01   -0.24953E-02  1224   0.795E-01    0.213E-01
DAV:   5    -0.672589364221E+02    0.23628E-02   -0.46925E-03  1164   0.336E-01    0.115E-01
DAV:   6    -0.672591713489E+02   -0.23493E-03   -0.36986E-03   960   0.290E-01    0.111E-01
DAV:   7    -0.672594780658E+02   -0.30672E-03   -0.30364E-04  1260   0.945E-02    0.390E-02
DAV:   8    -0.672600085692E+02   -0.53050E-03   -0.32283E-04   936   0.743E-02    0.211E-02
DAV:   9    -0.672601524526E+02   -0.14388E-03   -0.40721E-05  1092   0.313E-02    0.559E-03
DAV:  10    -0.672601972133E+02   -0.44761E-04   -0.55082E-06  1044   0.106E-02    0.176E-03
DAV:  11    -0.672602120379E+02   -0.14825E-04   -0.14572E-06  1032   0.516E-03    0.446E-04
DAV:  12    -0.672602131572E+02   -0.11193E-05   -0.36296E-08   996   0.104E-03    0.303E-04
DAV:  13    -0.672602136411E+02   -0.48393E-06   -0.17923E-08   792   0.722E-04
  36 F= -.67260214E+02 E0= -.67260214E+02  d E =-.890218E-02
 curvature: -31.32 expect dE=-0.294E-01 dE for cont linesearch -0.154E-03
 ZBRENT: extrapolating
 opt :   0.4474  next Energy=   -67.260369 (dE=-0.906E-02)
 bond charge predicted
       N       E                     dE             d eps       ncg     rms          rms(c)
DAV:   1    -0.672952463395E+02   -0.35033E-01   -0.12031E+00  1140   0.599E+00    0.743E-01
DAV:   2    -0.672705598574E+02    0.24686E-01   -0.30184E-02  1092   0.909E-01    0.387E-01
DAV:   3    -0.672596249232E+02    0.10935E-01   -0.27794E-02  1320   0.765E-01    0.110E-01
DAV:   4    -0.672595403188E+02    0.84604E-04   -0.14838E-03   996   0.200E-01    0.438E-02
DAV:   5    -0.672594923508E+02    0.47968E-04   -0.46311E-04  1272   0.100E-01    0.314E-02
DAV:   6    -0.672600150740E+02   -0.52272E-03   -0.25313E-04   972   0.790E-02    0.309E-02
DAV:   7    -0.672601416726E+02   -0.12660E-03   -0.32386E-05  1080   0.267E-02    0.155E-02
DAV:   8    -0.672603248792E+02   -0.18321E-03   -0.69291E-05   948   0.340E-02    0.741E-03
DAV:   9    -0.672603527343E+02   -0.27855E-04   -0.41660E-06  1224   0.976E-03    0.389E-03
DAV:  10    -0.672603622809E+02   -0.95465E-05   -0.22118E-06   936   0.713E-03    0.913E-04
DAV:  11    -0.672603641031E+02   -0.18222E-05   -0.13782E-07   912   0.208E-03    0.565E-04
DAV:  12    -0.672603642891E+02   -0.18602E-06   -0.30532E-08   972   0.931E-04
  37 F= -.67260364E+02 E0= -.67260364E+02  d E =-.905282E-02
 curvature: -31.43 expect dE=-0.151E-01 dE for cont linesearch -0.367E-06
 ZBRENT: bracketing found
 ZBRENT: interpolating
 opt :   0.4447  next Energy=   -67.260365 (dE=-0.905E-02)
 bond charge predicted
       N       E                     dE             d eps       ncg     rms          rms(c)
DAV:   1    -0.672604414189E+02   -0.77316E-04   -0.26095E-03  1104   0.278E-01    0.345E-02
DAV:   2    -0.672603863913E+02    0.55028E-04   -0.66186E-05   984   0.426E-02    0.181E-02
DAV:   3    -0.672603564796E+02    0.29912E-04   -0.62797E-05  1164   0.361E-02    0.519E-03
DAV:   4    -0.672603560703E+02    0.40929E-06   -0.32485E-06  1104   0.938E-03
  38 F= -.67260356E+02 E0= -.67260356E+02  d E =-.904460E-02
 curvature: -29.97 expect dE=-0.138E-01 dE for cont linesearch -0.104E-03
 ZBRENT: bisectioning
 opt :   0.4167  next Energy=   -67.261081 (dE=-0.977E-02)
 bond charge predicted
       N       E                     dE             d eps       ncg     rms          rms(c)
DAV:   1    -0.672684013237E+02   -0.80448E-02   -0.27294E-01  1176   0.284E+00    0.352E-01
DAV:   2    -0.672627714708E+02    0.56299E-02   -0.70121E-03  1104   0.436E-01    0.184E-01
DAV:   3    -0.672602509924E+02    0.25205E-02   -0.64389E-03  1248   0.364E-01    0.519E-02
DAV:   4    -0.672601662360E+02    0.84756E-04   -0.32544E-04  1008   0.931E-02    0.210E-02
DAV:   5    -0.672601195283E+02    0.46708E-04   -0.10775E-04  1248   0.474E-02    0.148E-02
DAV:   6    -0.672602225444E+02   -0.10302E-03   -0.36256E-05   936   0.317E-02    0.154E-02
DAV:   7    -0.672602601419E+02   -0.37597E-04   -0.61627E-06   912   0.141E-02    0.802E-03
DAV:   8    -0.672603147373E+02   -0.54595E-04   -0.13671E-05   960   0.170E-02    0.408E-03
DAV:   9    -0.672603229157E+02   -0.81784E-05   -0.65971E-07   888   0.461E-03    0.242E-03
DAV:  10    -0.672603253541E+02   -0.24384E-05   -0.66696E-07   804   0.401E-03    0.536E-04
DAV:  11    -0.672603257773E+02   -0.42319E-06   -0.54572E-08   912   0.135E-03
  39 F= -.67260326E+02 E0= -.67260326E+02  d E =-.901431E-02
 curvature: ****** expect dE=-0.114E+00 dE for cont linesearch -0.233E-03
 ZBRENT: interpolating
 opt :   0.4269  next Energy=   -67.260339 (dE=-0.903E-02)
 bond charge predicted
       N       E                     dE             d eps       ncg     rms          rms(c)
DAV:   1    -0.672613937417E+02   -0.10684E-02   -0.35767E-02  1152   0.103E+00    0.128E-01
DAV:   2    -0.672606382215E+02    0.75552E-03   -0.90456E-04   948   0.157E-01    0.668E-02
DAV:   3    -0.672602551489E+02    0.38307E-03   -0.84301E-04  1248   0.133E-01    0.190E-02
DAV:   4    -0.672602576007E+02   -0.24518E-05   -0.44069E-05  1068   0.346E-02    0.763E-03
DAV:   5    -0.672602600747E+02   -0.24740E-05   -0.14068E-05  1224   0.172E-02    0.540E-03
DAV:   6    -0.672603083250E+02   -0.48250E-04   -0.83973E-06   924   0.136E-02    0.552E-03
DAV:   7    -0.672603232250E+02   -0.14900E-04   -0.12699E-06  1116   0.494E-03    0.286E-03
DAV:   8    -0.672603447209E+02   -0.21496E-04   -0.34090E-06   948   0.718E-03    0.148E-03
DAV:   9    -0.672603470640E+02   -0.23431E-05   -0.13507E-07   984   0.184E-03    0.882E-04
DAV:  10    -0.672603478542E+02   -0.79026E-06   -0.11184E-07   744   0.168E-03
  40 F= -.67260348E+02 E0= -.67260348E+02  d E =-.903639E-02
 curvature: -11.37 expect dE=-0.550E-02 dE for cont linesearch -0.643E-05
 ZBRENT: bisectioning
 opt :   0.4358  next Energy=   -67.260361 (dE=-0.905E-02)
 bond charge predicted
       N       E                     dE             d eps       ncg     rms          rms(c)
DAV:   1    -0.672611793297E+02   -0.83227E-03   -0.27896E-02  1320   0.909E-01    0.113E-01
DAV:   2    -0.672605842715E+02    0.59506E-03   -0.72320E-04   960   0.139E-01    0.589E-02
DAV:   3    -0.672602849249E+02    0.29935E-03   -0.62967E-04  1272   0.115E-01    0.162E-02
DAV:   4    -0.672602834034E+02    0.15215E-05   -0.30760E-05  1056   0.290E-02    0.659E-03
DAV:   5    -0.672602878623E+02   -0.44589E-05   -0.10421E-05  1200   0.147E-02    0.457E-03
DAV:   6    -0.672603285348E+02   -0.40672E-04   -0.60132E-06   924   0.112E-02    0.460E-03
DAV:   7    -0.672603416140E+02   -0.13079E-04   -0.89310E-07  1092   0.402E-03    0.242E-03
DAV:   8    -0.672603581645E+02   -0.16550E-04   -0.23225E-06   948   0.588E-03    0.117E-03
DAV:   9    -0.672603603765E+02   -0.22120E-05   -0.12119E-07   960   0.171E-03    0.645E-04
DAV:  10    -0.672603609148E+02   -0.53833E-06   -0.58356E-08   732   0.123E-03
  41 F= -.67260361E+02 E0= -.67260361E+02  d E =-.904945E-02
 curvature: -23.15 expect dE=-0.107E-01 dE for cont linesearch -0.378E-05
 ZBRENT: bisectioning
 opt :   0.4403  next Energy=   -67.260364 (dE=-0.905E-02)
 bond charge predicted
       N       E                     dE             d eps       ncg     rms          rms(c)
DAV:   1    -0.672605688630E+02   -0.20849E-03   -0.69888E-03  1332   0.455E-01    0.567E-02
DAV:   2    -0.672604178016E+02    0.15106E-03   -0.18100E-04   936   0.695E-02    0.295E-02
DAV:   3    -0.672603369751E+02    0.80826E-04   -0.15810E-04  1224   0.575E-02    0.810E-03
DAV:   4    -0.672603365445E+02    0.43058E-06   -0.76829E-06  1116   0.145E-02
  42 F= -.67260337E+02 E0= -.67260337E+02  d E =-.902508E-02
 curvature: -20.61 expect dE=-0.101E-01 dE for cont linesearch -0.198E-03
 ZBRENT: interpolating
 opt :   0.4430  next Energy=   -67.260360 (dE=-0.905E-02)
 bond charge predicted
       N       E                     dE             d eps       ncg     rms          rms(c)
DAV:   1    -0.672604219473E+02   -0.84972E-04   -0.25931E-03  1104   0.279E-01    0.337E-02
DAV:   2    -0.672603564888E+02    0.65459E-04   -0.65759E-05  1032   0.424E-02    0.177E-02
DAV:   3    -0.672603229796E+02    0.33509E-04   -0.65591E-05  1272   0.365E-02    0.547E-03
DAV:   4    -0.672603298384E+02   -0.68588E-05   -0.37917E-06   960   0.101E-02    0.223E-03
DAV:   5    -0.672603365893E+02   -0.67508E-05   -0.16494E-06   984   0.564E-03    0.171E-03
DAV:   6    -0.672603562835E+02   -0.19694E-04   -0.20192E-06   972   0.560E-03    0.186E-03
DAV:   7    -0.672603607832E+02   -0.44997E-05   -0.22864E-07   936   0.206E-03    0.837E-04
DAV:   8    -0.672603641618E+02   -0.33786E-05   -0.31656E-07   744   0.243E-03    0.492E-04
DAV:   9    -0.672603645758E+02   -0.41394E-06   -0.24147E-08   936   0.829E-04
  43 F= -.67260365E+02 E0= -.67260365E+02  d E =-.905311E-02
 curvature:  -0.39 expect dE=-0.181E-03 dE for cont linesearch -0.124E-09
 trial: gam= 0.01425 g(F)=  0.400E-03 g(S)=  0.667E-04 ort = 0.425E-04 (trialstep = 0.166E+00)
 search vector abs. value=  0.162E-02
 bond charge predicted
       N       E                     dE             d eps       ncg     rms          rms(c)
DAV:   1    -0.672604825966E+02   -0.11843E-03   -0.38660E-03  1224   0.363E-01    0.320E-02
DAV:   2    -0.672604358690E+02    0.46728E-04   -0.10612E-04   936   0.580E-02    0.171E-02
DAV:   3    -0.672604116904E+02    0.24179E-04   -0.52783E-05  1140   0.347E-02    0.539E-03
DAV:   4    -0.672604104593E+02    0.12311E-05   -0.51106E-06  1176   0.116E-02    0.249E-03
DAV:   5    -0.672604099454E+02    0.51396E-06   -0.13050E-06  1068   0.547E-03
  44 F= -.67260410E+02 E0= -.67260410E+02  d E =-.453696E-04
 trial-energy change:   -0.000045  1 .order   -0.000057   -0.000078   -0.000036
 step:   0.3108(harm=  0.3108)  dis= 0.00059  next Energy=   -67.260437 (dE=-0.727E-04)
 bond charge predicted
       N       E                     dE             d eps       ncg     rms          rms(c)
DAV:   1    -0.672604756220E+02   -0.65163E-04   -0.29078E-03  1020   0.315E-01    0.277E-02
DAV:   2    -0.672604374994E+02    0.38123E-04   -0.77872E-05   936   0.506E-02    0.150E-02
DAV:   3    -0.672604190271E+02    0.18472E-04   -0.43428E-05  1128   0.314E-02    0.481E-03
DAV:   4    -0.672604197281E+02   -0.70096E-06   -0.43358E-06  1104   0.107E-02
  45 F= -.67260420E+02 E0= -.67260420E+02  d E =-.551523E-04
 curvature:  -0.54 expect dE=-0.271E-05 dE for cont linesearch -0.729E-06
 trial: gam= 0.00000 g(F)=  0.626E-06 g(S)=  0.443E-05 ort = 0.468E-04 (trialstep = 0.195E+00)
 search vector abs. value=  0.506E-05
 reached required accuracy - stopping structural energy minimisation
 writing wavefunctions
