 running on   12 total cores
 distrk:  each k-point on   12 cores,    1 groups
 distr:  one band on    1 cores,   12 groups
 using from now: INCAR     
 vasp.5.4.4.18Apr17-6-g9f103f2a35 (build Mar 30 2023 15:39:25) complex          
  
 POSCAR found type information on POSCAR  B  C 
 POSCAR found :  2 types and       8 ions
 scaLAPACK will be used

 ----------------------------------------------------------------------------- 
|                                                                             |
|           W    W    AA    RRRRR   N    N  II  N    N   GGGG   !!!           |
|           W    W   A  A   R    R  NN   N  II  NN   N  G    G  !!!           |
|           W    W  A    A  R    R  N N  N  II  N N  N  G       !!!           |
|           W WW W  AAAAAA  RRRRR   N  N N  II  N  N N  G  GGG   !            |
|           WW  WW  A    A  R   R   N   NN  II  N   NN  G    G                |
|           W    W  A    A  R    R  N    N  II  N    N   GGGG   !!!           |
|                                                                             |
|      For optimal performance we recommend to set                            |
|        NCORE= 4 - approx SQRT( number of cores)                             |
|      NCORE specifies how many cores store one orbital (NPAR=cpu/NCORE).     |
|      This setting can  greatly improve the performance of VASP for DFT.     |
|      The default,   NCORE=1            might be grossly inefficient         |
|      on modern multi-core architectures or massively parallel machines.     |
|      Do your own testing !!!!                                               |
|      Unfortunately you need to use the default for GW and RPA calculations. |
|      (for HF NCORE is supported but not extensively tested yet)             |
|                                                                             |
 ----------------------------------------------------------------------------- 

 LDA part: xc-table for Pade appr. of Perdew
 POSCAR, INCAR and KPOINTS ok, starting setup
 FFT: planning ...
 WAVECAR not read
 entering main loop
       N       E                     dE             d eps       ncg     rms          rms(c)
DAV:   1     0.213979232574E+03    0.21398E+03   -0.10526E+04   912   0.827E+02
DAV:   2    -0.410794246554E+02   -0.25506E+03   -0.23927E+03  1344   0.197E+02
DAV:   3    -0.714630130801E+02   -0.30384E+02   -0.30137E+02  1236   0.820E+01
DAV:   4    -0.721168170571E+02   -0.65380E+00   -0.65237E+00  1236   0.149E+01
DAV:   5    -0.721385735881E+02   -0.21757E-01   -0.21703E-01  1272   0.244E+00    0.128E+01
DAV:   6    -0.680762183172E+02    0.40624E+01   -0.34359E+00  1188   0.851E+00    0.735E+00
DAV:   7    -0.663491383254E+02    0.17271E+01   -0.48389E+00  1344   0.995E+00    0.165E+00
DAV:   8    -0.663126950659E+02    0.36443E-01   -0.13529E-01  1320   0.180E+00    0.243E-01
DAV:   9    -0.663031981184E+02    0.94969E-02   -0.65447E-03  1152   0.389E-01    0.163E-01
DAV:  10    -0.662944590817E+02    0.87390E-02   -0.94387E-03  1080   0.333E-01    0.754E-02
DAV:  11    -0.662923364935E+02    0.21226E-02   -0.32926E-03   996   0.224E-01    0.575E-02
DAV:  12    -0.662926833797E+02   -0.34689E-03   -0.58003E-04   936   0.981E-02    0.329E-02
DAV:  13    -0.662945350568E+02   -0.18517E-02   -0.21394E-04  1116   0.611E-02    0.212E-02
DAV:  14    -0.662970034501E+02   -0.24684E-02   -0.46828E-04   996   0.668E-02    0.170E-02
DAV:  15    -0.662976366215E+02   -0.63317E-03   -0.62637E-05  1104   0.303E-02    0.926E-03
DAV:  16    -0.662979420090E+02   -0.30539E-03   -0.20221E-05   948   0.179E-02    0.192E-03
DAV:  17    -0.662979691751E+02   -0.27166E-04   -0.86288E-07   996   0.422E-03    0.114E-03
DAV:  18    -0.662979824903E+02   -0.13315E-04   -0.32761E-07   744   0.268E-03    0.414E-04
DAV:  19    -0.662979828326E+02   -0.34233E-06   -0.24891E-08   924   0.821E-04
   1 F= -.66297983E+02 E0= -.66297915E+02  d E =-.662980E+02
 curvature:   0.00 expect dE= 0.000E+00 dE for cont linesearch  0.000E+00
 trial: gam= 0.00000 g(F)=  0.533E+01 g(S)=  0.290E-01 ort = 0.000E+00 (trialstep = 0.100E+01)
 search vector abs. value=  0.536E+01
 bond charge predicted
       N       E                     dE             d eps       ncg     rms          rms(c)
DAV:   1    -0.638490699097E+02    0.24489E+01   -0.74777E+02   912   0.158E+02    0.102E+01
DAV:   2    -0.632763976726E+02    0.57267E+00   -0.20567E+01  1320   0.307E+01    0.427E+00
DAV:   3    -0.629843451636E+02    0.29205E+00   -0.27001E+00  1020   0.874E+00    0.182E+00
DAV:   4    -0.629704238134E+02    0.13921E-01   -0.15376E-01  1224   0.233E+00    0.854E-01
DAV:   5    -0.629660354639E+02    0.43883E-02   -0.15453E-02  1152   0.690E-01    0.138E-01
DAV:   6    -0.629662080483E+02   -0.17258E-03   -0.90381E-04  1104   0.175E-01    0.638E-02
DAV:   7    -0.629663645416E+02   -0.15649E-03   -0.18094E-04   924   0.854E-02    0.132E-02
DAV:   8    -0.629664890423E+02   -0.12450E-03   -0.26855E-05  1008   0.262E-02    0.919E-03
DAV:   9    -0.629667340643E+02   -0.24502E-03   -0.61618E-05   948   0.283E-02    0.695E-03
DAV:  10    -0.629668108457E+02   -0.76781E-04   -0.94024E-06  1092   0.110E-02    0.348E-03
DAV:  11    -0.629668535545E+02   -0.42709E-04   -0.32861E-06  1104   0.819E-03    0.251E-03
DAV:  12    -0.629669141986E+02   -0.60644E-04   -0.26928E-06  1020   0.663E-03    0.152E-03
DAV:  13    -0.629669236622E+02   -0.94637E-05   -0.18683E-07   840   0.194E-03    0.932E-04
DAV:  14    -0.629669343892E+02   -0.10727E-04   -0.46972E-07   768   0.249E-03    0.595E-04
DAV:  15    -0.629669351110E+02   -0.72180E-06   -0.36641E-08   792   0.918E-04
   2 F= -.62966935E+02 E0= -.62966935E+02  d E =0.333105E+01
 trial-energy change:    3.331048  1 .order    4.355554   -5.355354   14.066461
 step:   0.3475(harm=  0.2757)  dis= 0.07191  next Energy=   -67.271480 (dE=-0.973E+00)
 bond charge predicted
       N       E                     dE             d eps       ncg     rms          rms(c)
DAV:   1    -0.677761177383E+02   -0.48092E+01   -0.34741E+02   912   0.114E+02    0.504E+00
DAV:   2    -0.673073464238E+02    0.46877E+00   -0.72598E+00  1200   0.166E+01    0.326E+00
DAV:   3    -0.672315383488E+02    0.75808E-01   -0.94632E-01  1080   0.565E+00    0.179E+00
DAV:   4    -0.672287082874E+02    0.28301E-02   -0.15046E-01  1200   0.181E+00    0.623E-01
DAV:   5    -0.672258563420E+02    0.28519E-02   -0.27582E-02  1140   0.990E-01    0.136E-01
DAV:   6    -0.672258995341E+02   -0.43192E-04   -0.37932E-03  1116   0.368E-01    0.725E-02
DAV:   7    -0.672260698390E+02   -0.17030E-03   -0.48492E-04  1212   0.118E-01    0.344E-02
DAV:   8    -0.672261351577E+02   -0.65319E-04   -0.24556E-04  1140   0.755E-02    0.149E-02
DAV:   9    -0.672262808797E+02   -0.14572E-03   -0.50172E-05   984   0.310E-02    0.958E-03
DAV:  10    -0.672263197957E+02   -0.38916E-04   -0.10621E-05  1128   0.127E-02    0.674E-03
DAV:  11    -0.672263298518E+02   -0.10056E-04   -0.84194E-06  1044   0.953E-03    0.220E-03
DAV:  12    -0.672263337271E+02   -0.38753E-05   -0.61839E-07  1008   0.348E-03    0.174E-03
DAV:  13    -0.672263362832E+02   -0.25560E-05   -0.21793E-07   960   0.228E-03    0.116E-03
DAV:  14    -0.672263400469E+02   -0.37638E-05   -0.31287E-07   732   0.233E-03    0.631E-04
DAV:  15    -0.672263404920E+02   -0.44507E-06   -0.25461E-08   780   0.710E-04
   3 F= -.67226340E+02 E0= -.67226340E+02  d E =-.928358E+00
 curvature:  -0.14 expect dE=-0.329E-02 dE for cont linesearch -0.419E-04
 ZBRENT: interpolating
 opt :   0.3449  next Energy=   -67.226393 (dE=-0.928E+00)
 bond charge predicted
       N       E                     dE             d eps       ncg     rms          rms(c)
DAV:   1    -0.672263970464E+02   -0.56999E-04   -0.54811E-03   912   0.445E-01    0.207E-02
DAV:   2    -0.672263894348E+02    0.76116E-05   -0.92271E-05  1116   0.624E-02    0.106E-02
DAV:   3    -0.672263880775E+02    0.13573E-05   -0.18606E-05   936   0.242E-02    0.421E-03
DAV:   4    -0.672263881259E+02   -0.48418E-07   -0.27380E-06  1284   0.833E-03
   4 F= -.67226388E+02 E0= -.67226388E+02  d E =-.928405E+00
 curvature:  -0.17 expect dE=-0.392E-02 dE for cont linesearch -0.515E-06
 trial: gam= 0.00350 g(F)=  0.160E-03 g(S)=  0.226E-01 ort = 0.400E-02 (trialstep = 0.869E+00)
 search vector abs. value=  0.228E-01
 bond charge predicted
       N       E                     dE             d eps       ncg     rms          rms(c)
DAV:   1    -0.672281588218E+02   -0.17707E-02   -0.49404E-01  1044   0.455E+00    0.447E-01
DAV:   2    -0.672244135190E+02    0.37453E-02   -0.79820E-03  1068   0.529E-01    0.270E-01
DAV:   3    -0.672225537790E+02    0.18597E-02   -0.46840E-03  1224   0.319E-01    0.521E-02
DAV:   4    -0.672224376947E+02    0.11608E-03   -0.75126E-04  1188   0.136E-01    0.223E-02
DAV:   5    -0.672224323087E+02    0.53860E-05   -0.64587E-05  1104   0.407E-02    0.967E-03
DAV:   6    -0.672224847365E+02   -0.52428E-04   -0.56307E-06   996   0.103E-02    0.405E-03
DAV:   7    -0.672225346915E+02   -0.49955E-04   -0.91653E-06   984   0.108E-02    0.258E-03
DAV:   8    -0.672225708310E+02   -0.36139E-04   -0.70801E-06  1068   0.770E-03    0.118E-03
DAV:   9    -0.672225769493E+02   -0.61183E-05   -0.11190E-06  1200   0.384E-03    0.757E-04
DAV:  10    -0.672225782472E+02   -0.12980E-05   -0.45377E-07   912   0.258E-03    0.505E-04
DAV:  11    -0.672225793217E+02   -0.10744E-05   -0.12060E-07   924   0.163E-03    0.298E-04
DAV:  12    -0.672225798694E+02   -0.54768E-06   -0.42460E-08   840   0.922E-04
   5 F= -.67222580E+02 E0= -.67222580E+02  d E =0.380826E-02
 trial-energy change:    0.003808  1 .order    0.003647   -0.019767    0.027061
 step:   0.3624(harm=  0.3668)  dis= 0.00067  next Energy=   -67.230499 (dE=-0.411E-02)
 bond charge predicted
       N       E                     dE             d eps       ncg     rms          rms(c)
DAV:   1    -0.672323175325E+02   -0.97382E-02   -0.16832E-01  1020   0.267E+00    0.261E-01
DAV:   2    -0.672310736477E+02    0.12439E-02   -0.27138E-03  1212   0.309E-01    0.158E-01
DAV:   3    -0.672304759218E+02    0.59773E-03   -0.15679E-03  1116   0.186E-01    0.299E-02
DAV:   4    -0.672304288037E+02    0.47118E-04   -0.24713E-04  1224   0.785E-02    0.127E-02
DAV:   5    -0.672304213100E+02    0.74937E-05   -0.21199E-05  1176   0.233E-02    0.565E-03
DAV:   6    -0.672304300432E+02   -0.87332E-05   -0.11577E-06   816   0.532E-03    0.228E-03
DAV:   7    -0.672304422335E+02   -0.12190E-04   -0.22791E-06   912   0.588E-03    0.155E-03
DAV:   8    -0.672304586439E+02   -0.16410E-04   -0.21891E-06   960   0.495E-03    0.818E-04
DAV:   9    -0.672304615328E+02   -0.28889E-05   -0.84748E-08   960   0.139E-03    0.459E-04
DAV:  10    -0.672304659918E+02   -0.44590E-05   -0.22299E-07   912   0.149E-03    0.338E-04
DAV:  11    -0.672304692945E+02   -0.33027E-05   -0.50485E-08   888   0.827E-04    0.232E-04
DAV:  12    -0.672304704532E+02   -0.11587E-05   -0.11997E-08   816   0.394E-04    0.210E-04
DAV:  13    -0.672304713291E+02   -0.87587E-06   -0.20371E-08   684   0.471E-04
   6 F= -.67230471E+02 E0= -.67230471E+02  d E =-.408320E-02
 curvature:  -0.18 expect dE=-0.120E-03 dE for cont linesearch -0.285E-08
 trial: gam= 0.03560 g(F)=  0.452E-03 g(S)=  0.202E-03 ort = 0.188E-04 (trialstep = 0.768E+00)
 search vector abs. value=  0.684E-03
 bond charge predicted
       N       E                     dE             d eps       ncg     rms          rms(c)
DAV:   1    -0.672306852541E+02   -0.21480E-03   -0.47650E-02   912   0.130E+00    0.604E-02
DAV:   2    -0.672306109555E+02    0.74299E-04   -0.85860E-04   960   0.177E-01    0.387E-02
DAV:   3    -0.672305414878E+02    0.69468E-04   -0.17384E-04  1140   0.701E-02    0.116E-02
DAV:   4    -0.672305345304E+02    0.69574E-05   -0.24176E-05  1248   0.250E-02    0.489E-03
DAV:   5    -0.672305339282E+02    0.60224E-06   -0.34667E-06  1008   0.857E-03
   7 F= -.67230534E+02 E0= -.67230534E+02  d E =-.625991E-04
 trial-energy change:   -0.000063  1 .order   -0.000078   -0.000502    0.000346
 step:   0.4339(harm=  0.4542)  dis= 0.00086  next Energy=   -67.230610 (dE=-0.139E-03)
 bond charge predicted
       N       E                     dE             d eps       ncg     rms          rms(c)
DAV:   1    -0.672306328701E+02   -0.98340E-04   -0.89377E-03   960   0.563E-01    0.261E-02
DAV:   2    -0.672306248683E+02    0.80018E-05   -0.16023E-04   960   0.759E-02    0.167E-02
DAV:   3    -0.672306185292E+02    0.63392E-05   -0.30822E-05  1068   0.296E-02    0.507E-03
DAV:   4    -0.672306186023E+02   -0.73093E-07   -0.42912E-06  1176   0.105E-02
   8 F= -.67230619E+02 E0= -.67230619E+02  d E =-.147273E-03
 curvature:  -0.24 expect dE=-0.490E-04 dE for cont linesearch -0.523E-07
 trial: gam= 0.29808 g(F)=  0.541E-04 g(S)=  0.153E-03 ort = 0.123E-04 (trialstep = 0.701E+00)
 search vector abs. value=  0.275E-03
 bond charge predicted
       N       E                     dE             d eps       ncg     rms          rms(c)
DAV:   1    -0.672309910250E+02   -0.37250E-03   -0.77211E-03  1248   0.468E-01    0.577E-02
DAV:   2    -0.672308392598E+02    0.15177E-03   -0.18272E-04   996   0.691E-02    0.300E-02
DAV:   3    -0.672307640048E+02    0.75255E-04   -0.17016E-04  1008   0.584E-02    0.859E-03
DAV:   4    -0.672307635452E+02    0.45957E-06   -0.64039E-06  1260   0.133E-02
   9 F= -.67230764E+02 E0= -.67230764E+02  d E =-.144943E-03
 ZBRENT: can't locate minimum, use default step
 trial-energy change:   -0.000145  1 .order   -0.000170   -0.000148   -0.000193
 step:   2.8037(harm=  2.8037)  dis= 0.00020  next Energy=   -67.231569 (dE=-0.950E-03)
 bond charge predicted
       N       E                     dE             d eps       ncg     rms          rms(c)
DAV:   1    -0.672331711388E+02   -0.24071E-02   -0.68058E-02  1032   0.140E+00    0.170E-01
DAV:   2    -0.672317659650E+02    0.14052E-02   -0.15665E-03  1008   0.208E-01    0.896E-02
DAV:   3    -0.672310864669E+02    0.67950E-03   -0.16711E-03  1176   0.182E-01    0.275E-02
DAV:   4    -0.672311043708E+02   -0.17904E-04   -0.68423E-05  1056   0.432E-02    0.133E-02
DAV:   5    -0.672311201792E+02   -0.15808E-04   -0.28100E-05   996   0.232E-02    0.710E-03
DAV:   6    -0.672311858473E+02   -0.65668E-04   -0.16869E-05   960   0.187E-02    0.742E-03
DAV:   7    -0.672312021162E+02   -0.16269E-04   -0.31759E-06  1128   0.761E-03    0.363E-03
DAV:   8    -0.672312248019E+02   -0.22686E-04   -0.96513E-06  1020   0.111E-02    0.365E-03
DAV:   9    -0.672312260129E+02   -0.12110E-05   -0.30961E-07  1032   0.279E-03    0.209E-03
DAV:  10    -0.672312267746E+02   -0.76168E-06   -0.14057E-06   864   0.555E-03
  10 F= -.67231227E+02 E0= -.67231227E+02  d E =-.608172E-03
 curvature:  -2.84 expect dE=-0.504E-03 dE for cont linesearch -0.471E-03
 ZBRENT: increasing intervall
 opt :   7.0093  next Energy=   -67.231867 (dE=-0.125E-02)
 bond charge predicted
       N       E                     dE             d eps       ncg     rms          rms(c)
DAV:   1    -0.672398228686E+02   -0.85969E-02   -0.27744E-01  1104   0.282E+00    0.345E-01
DAV:   2    -0.672343131353E+02    0.55097E-02   -0.64417E-03  1032   0.418E-01    0.181E-01
DAV:   3    -0.672317180793E+02    0.25951E-02   -0.65632E-03  1188   0.361E-01    0.542E-02
DAV:   4    -0.672317479232E+02   -0.29844E-04   -0.27395E-04  1164   0.861E-02    0.256E-02
DAV:   5    -0.672317549202E+02   -0.69971E-05   -0.10524E-04  1044   0.452E-02    0.138E-02
DAV:   6    -0.672319309945E+02   -0.17607E-03   -0.55094E-05   984   0.343E-02    0.131E-02
DAV:   7    -0.672319632695E+02   -0.32275E-04   -0.80025E-06  1152   0.123E-02    0.687E-03
DAV:   8    -0.672320170765E+02   -0.53807E-04   -0.29338E-05  1032   0.195E-02    0.605E-03
DAV:   9    -0.672320202020E+02   -0.31255E-05   -0.90483E-07  1056   0.480E-03    0.371E-03
DAV:  10    -0.672320216491E+02   -0.14471E-05   -0.43254E-06  1104   0.949E-03    0.295E-03
DAV:  11    -0.672320237078E+02   -0.20587E-05   -0.43900E-07   960   0.327E-03    0.155E-03
DAV:  12    -0.672320243477E+02   -0.63989E-06   -0.26945E-07   864   0.252E-03
  11 F= -.67232024E+02 E0= -.67232024E+02  d E =-.140575E-02
 curvature:  -3.86 expect dE=-0.118E-02 dE for cont linesearch -0.436E-03
 ZBRENT: increasing intervall
 opt :  15.4204  next Energy=   -67.233193 (dE=-0.257E-02)
 bond charge predicted
       N       E                     dE             d eps       ncg     rms          rms(c)
DAV:   1    -0.672647587650E+02   -0.32735E-01   -0.11280E+00  1044   0.569E+00    0.695E-01
DAV:   2    -0.672424834503E+02    0.22275E-01   -0.25501E-02  1020   0.841E-01    0.365E-01
DAV:   3    -0.672325451384E+02    0.99383E-02   -0.26862E-02  1248   0.729E-01    0.110E-01
DAV:   4    -0.672326089758E+02   -0.63837E-04   -0.11411E-03  1116   0.175E-01    0.520E-02
DAV:   5    -0.672326307369E+02   -0.21761E-04   -0.42324E-04  1080   0.915E-02    0.284E-02
DAV:   6    -0.672330466756E+02   -0.41594E-03   -0.21115E-04  1008   0.693E-02    0.263E-02
DAV:   7    -0.672331348399E+02   -0.88164E-04   -0.36132E-05  1164   0.265E-02    0.130E-02
DAV:   8    -0.672332540750E+02   -0.11924E-03   -0.10525E-04  1020   0.382E-02    0.125E-02
DAV:   9    -0.672332579838E+02   -0.39087E-05   -0.39981E-06  1272   0.993E-03    0.667E-03
DAV:  10    -0.672332581927E+02   -0.20897E-06   -0.13358E-05  1116   0.169E-02    0.510E-03
DAV:  11    -0.672332641752E+02   -0.59824E-05   -0.10937E-06   912   0.533E-03    0.354E-03
DAV:  12    -0.672332675547E+02   -0.33795E-05   -0.13291E-06   876   0.543E-03    0.710E-04
DAV:  13    -0.672332729458E+02   -0.53911E-05   -0.36708E-07   708   0.272E-03    0.759E-04
DAV:  14    -0.672332731045E+02   -0.15866E-06   -0.30639E-08   972   0.919E-04
  12 F= -.67233273E+02 E0= -.67233273E+02  d E =-.265450E-02
 curvature: -10.36 expect dE=-0.149E-01 dE for cont linesearch -0.518E-03
 ZBRENT: increasing intervall
 opt :  32.2426  next Energy=   -67.234256 (dE=-0.364E-02)
 bond charge predicted
       N       E                     dE             d eps       ncg     rms          rms(c)
DAV:   1    -0.673637569287E+02   -0.13048E+00   -0.46665E+00  1056   0.116E+01    0.142E+00
DAV:   2    -0.672728618742E+02    0.90895E-01   -0.10603E-01   984   0.170E+00    0.741E-01
DAV:   3    -0.672338427021E+02    0.39019E-01   -0.10816E-01  1272   0.147E+00    0.222E-01
DAV:   4    -0.672335077323E+02    0.33497E-03   -0.49943E-03  1140   0.360E-01    0.101E-01
DAV:   5    -0.672331879559E+02    0.31978E-03   -0.16913E-03  1032   0.185E-01    0.576E-02
DAV:   6    -0.672341805167E+02   -0.99256E-03   -0.79760E-04  1020   0.138E-01    0.487E-02
DAV:   7    -0.672343032897E+02   -0.12277E-03   -0.13040E-04  1128   0.509E-02    0.231E-02
DAV:   8    -0.672344741339E+02   -0.17084E-03   -0.31439E-04   996   0.661E-02    0.217E-02
DAV:   9    -0.672344657776E+02    0.83563E-05   -0.15937E-05  1236   0.196E-02    0.927E-03
DAV:  10    -0.672344522405E+02    0.13537E-04   -0.35902E-05  1080   0.279E-02    0.936E-03
DAV:  11    -0.672344726088E+02   -0.20368E-04   -0.57058E-06  1068   0.114E-02    0.447E-03
DAV:  12    -0.672344847452E+02   -0.12136E-04   -0.28013E-06  1008   0.787E-03    0.118E-03
DAV:  13    -0.672344991024E+02   -0.14357E-04   -0.90945E-07   828   0.353E-03    0.728E-04
DAV:  14    -0.672345001045E+02   -0.10021E-05   -0.46181E-08   972   0.946E-04    0.337E-04
DAV:  15    -0.672345004979E+02   -0.39347E-06   -0.36434E-08   732   0.773E-04
  13 F= -.67234500E+02 E0= -.67234500E+02  d E =-.388190E-02
 curvature: -19.65 expect dE=-0.140E+00 dE for cont linesearch -0.510E-04
 trial: gam=36.70681 g(F)=  0.572E-02 g(S)=  0.140E-02 ort = 0.267E-04 (trialstep = 0.508E-02)
 search vector abs. value=  0.380E+00
 bond charge predicted
       N       E                     dE             d eps       ncg     rms          rms(c)
DAV:   1    -0.672345559679E+02   -0.55863E-04   -0.52548E-04  1080   0.123E-01    0.150E-02
DAV:   2    -0.672345454229E+02    0.10545E-04   -0.11535E-05   984   0.174E-02    0.787E-03
DAV:   3    -0.672345399629E+02    0.54600E-05   -0.11765E-05  1104   0.152E-02    0.215E-03
DAV:   4    -0.672345400445E+02   -0.81607E-07   -0.34361E-07   888   0.323E-03
  14 F= -.67234540E+02 E0= -.67234540E+02  d E =-.395465E-04
 ZBRENT: can't locate minimum, use default step
 trial-energy change:   -0.000040  1 .order   -0.000042   -0.000041   -0.000043
 step:   0.0203(harm=  0.0203)  dis= 0.00008  next Energy=   -67.234681 (dE=-0.180E-03)
 bond charge predicted
       N       E                     dE             d eps       ncg     rms          rms(c)
DAV:   1    -0.672347968415E+02   -0.25688E-03   -0.46938E-03   972   0.367E-01    0.447E-02
DAV:   2    -0.672346995793E+02    0.97262E-04   -0.10247E-04   948   0.523E-02    0.235E-02
DAV:   3    -0.672346483713E+02    0.51208E-04   -0.10930E-04  1212   0.461E-02    0.663E-03
DAV:   4    -0.672346500079E+02   -0.16366E-05   -0.35815E-06   948   0.994E-03    0.308E-03
DAV:   5    -0.672346517510E+02   -0.17432E-05   -0.15654E-06   768   0.558E-03    0.164E-03
DAV:   6    -0.672346584399E+02   -0.66889E-05   -0.88905E-07   804   0.418E-03    0.148E-03
DAV:   7    -0.672346617358E+02   -0.32959E-05   -0.28257E-07   936   0.181E-03    0.891E-04
DAV:   8    -0.672346641978E+02   -0.24620E-05   -0.54080E-07   936   0.274E-03    0.809E-04
DAV:   9    -0.672346645177E+02   -0.31987E-06   -0.78374E-08   948   0.125E-03
  15 F= -.67234665E+02 E0= -.67234664E+02  d E =-.164020E-03
 curvature:  -0.73 expect dE=-0.473E-02 dE for cont linesearch -0.117E-03
 ZBRENT: increasing intervall
 opt :   0.0508  next Energy=   -67.234882 (dE=-0.381E-03)
 bond charge predicted
       N       E                     dE             d eps       ncg     rms          rms(c)
DAV:   1    -0.672354251320E+02   -0.76093E-03   -0.18997E-02  1140   0.738E-01    0.903E-02
DAV:   2    -0.672350518227E+02    0.37331E-03   -0.41457E-04  1020   0.104E-01    0.472E-02
DAV:   3    -0.672348600942E+02    0.19173E-03   -0.41921E-04  1116   0.907E-02    0.127E-02
DAV:   4    -0.672348622780E+02   -0.21838E-05   -0.13067E-05  1020   0.192E-02    0.583E-03
DAV:   5    -0.672348645711E+02   -0.22931E-05   -0.60685E-06   936   0.108E-02    0.305E-03
DAV:   6    -0.672348808934E+02   -0.16322E-04   -0.22395E-06   972   0.650E-03    0.267E-03
DAV:   7    -0.672348876812E+02   -0.67878E-05   -0.51414E-07   924   0.239E-03    0.179E-03
DAV:   8    -0.672348953815E+02   -0.77003E-05   -0.23513E-06  1128   0.525E-03    0.176E-03
DAV:   9    -0.672348962361E+02   -0.85459E-06   -0.45770E-07   984   0.311E-03
  16 F= -.67234896E+02 E0= -.67234896E+02  d E =-.395738E-03
 curvature:  -1.35 expect dE=-0.760E-02 dE for cont linesearch -0.202E-03
 ZBRENT: increasing intervall
 opt :   0.1117  next Energy=   -67.235337 (dE=-0.837E-03)
 bond charge predicted
       N       E                     dE             d eps       ncg     rms          rms(c)
DAV:   1    -0.672374456916E+02   -0.25503E-02   -0.76252E-02  1092   0.148E+00    0.181E-01
DAV:   2    -0.672359517387E+02    0.14940E-02   -0.16560E-03  1032   0.209E-01    0.948E-02
DAV:   3    -0.672352048291E+02    0.74691E-03   -0.16969E-03  1176   0.183E-01    0.258E-02
DAV:   4    -0.672352156098E+02   -0.10781E-04   -0.55103E-05   996   0.391E-02    0.118E-02
DAV:   5    -0.672352260713E+02   -0.10462E-04   -0.24440E-05   936   0.216E-02    0.631E-03
DAV:   6    -0.672352816557E+02   -0.55584E-04   -0.10309E-05   984   0.140E-02    0.546E-03
DAV:   7    -0.672353003021E+02   -0.18646E-04   -0.21467E-06  1104   0.497E-03    0.352E-03
DAV:   8    -0.672353212839E+02   -0.20982E-04   -0.77658E-06  1044   0.974E-03    0.317E-03
DAV:   9    -0.672353228851E+02   -0.16011E-05   -0.41656E-07  1008   0.306E-03    0.145E-03
DAV:  10    -0.672353240682E+02   -0.11831E-05   -0.10291E-06   888   0.482E-03    0.204E-03
DAV:  11    -0.672353245807E+02   -0.51251E-06   -0.27565E-07   828   0.249E-03
  17 F= -.67235325E+02 E0= -.67235325E+02  d E =-.824083E-03
 curvature:  -2.96 expect dE=-0.120E-01 dE for cont linesearch -0.351E-03
 ZBRENT: increasing intervall
 opt :   0.2336  next Energy=   -67.236044 (dE=-0.154E-02)
 bond charge predicted
       N       E                     dE             d eps       ncg     rms          rms(c)
DAV:   1    -0.672445717197E+02   -0.92477E-02   -0.30776E-01  1068   0.298E+00    0.363E-01
DAV:   2    -0.672385620086E+02    0.60097E-02   -0.66599E-03  1008   0.419E-01    0.190E-01
DAV:   3    -0.672356833376E+02    0.28787E-02   -0.68391E-03  1236   0.367E-01    0.520E-02
DAV:   4    -0.672357359031E+02   -0.52566E-04   -0.22869E-04   984   0.792E-02    0.236E-02
DAV:   5    -0.672357733176E+02   -0.37414E-04   -0.97722E-05   960   0.435E-02    0.128E-02
DAV:   6    -0.672359310607E+02   -0.15774E-03   -0.41652E-05  1008   0.288E-02    0.109E-02
DAV:   7    -0.672359881918E+02   -0.57131E-04   -0.90018E-06  1116   0.104E-02    0.701E-03
DAV:   8    -0.672360369769E+02   -0.48785E-04   -0.28016E-05   984   0.191E-02    0.629E-03
DAV:   9    -0.672360395134E+02   -0.25365E-05   -0.15688E-06  1044   0.601E-03    0.284E-03
DAV:  10    -0.672360423463E+02   -0.28329E-05   -0.40634E-06  1104   0.927E-03    0.426E-03
DAV:  11    -0.672360438548E+02   -0.15084E-05   -0.11331E-06   900   0.500E-03    0.920E-04
DAV:  12    -0.672360454627E+02   -0.16079E-05   -0.16509E-07   744   0.224E-03    0.288E-04
DAV:  13    -0.672360462332E+02   -0.77054E-06   -0.65457E-08   684   0.115E-03
  18 F= -.67236046E+02 E0= -.67236046E+02  d E =-.154574E-02
 curvature:  -6.06 expect dE=-0.104E-01 dE for cont linesearch -0.413E-03
 ZBRENT: increasing intervall
 opt :   0.4773  next Energy=   -67.236889 (dE=-0.239E-02)
 bond charge predicted
       N       E                     dE             d eps       ncg     rms          rms(c)
DAV:   1    -0.672715596532E+02   -0.35514E-01   -0.12544E+00  1044   0.603E+00    0.735E-01
DAV:   2    -0.672472509217E+02    0.24309E-01   -0.26815E-02   984   0.847E-01    0.384E-01
DAV:   3    -0.672361945590E+02    0.11056E-01   -0.27743E-02  1284   0.740E-01    0.105E-01
DAV:   4    -0.672362620588E+02   -0.67500E-04   -0.96312E-04   996   0.162E-01    0.470E-02
DAV:   5    -0.672362794612E+02   -0.17402E-04   -0.39013E-04   948   0.879E-02    0.262E-02
DAV:   6    -0.672367101022E+02   -0.43064E-03   -0.17373E-04   984   0.603E-02    0.217E-02
DAV:   7    -0.672368127931E+02   -0.10269E-03   -0.29346E-05  1116   0.200E-02    0.141E-02
DAV:   8    -0.672369078593E+02   -0.95066E-04   -0.96908E-05   984   0.368E-02    0.122E-02
DAV:   9    -0.672369065611E+02    0.12981E-05   -0.59255E-06  1188   0.116E-02    0.533E-03
DAV:  10    -0.672369131809E+02   -0.66197E-05   -0.13058E-05  1044   0.165E-02    0.783E-03
DAV:  11    -0.672369162322E+02   -0.30513E-05   -0.33223E-06  1080   0.845E-03    0.185E-03
DAV:  12    -0.672369233801E+02   -0.71479E-05   -0.61212E-07   732   0.378E-03    0.609E-04
DAV:  13    -0.672369251321E+02   -0.17520E-05   -0.13744E-07   732   0.168E-03    0.637E-04
DAV:  14    -0.672369253316E+02   -0.19954E-06   -0.29708E-08   768   0.849E-04
  19 F= -.67236925E+02 E0= -.67236925E+02  d E =-.242483E-02
 curvature: -12.38 expect dE=-0.281E-02 dE for cont linesearch -0.149E-03
 ZBRENT: increasing intervall
 opt :   0.9648  next Energy=   -67.236529 (dE=-0.203E-02)
 bond charge predicted
       N       E                     dE             d eps       ncg     rms          rms(c)
DAV:   1    -0.673796161223E+02   -0.14269E+00   -0.52102E+00  1092   0.124E+01    0.151E+00
DAV:   2    -0.672796583229E+02    0.99958E-01   -0.11303E-01   996   0.172E+00    0.781E-01
DAV:   3    -0.672358509346E+02    0.43807E-01   -0.11105E-01  1296   0.148E+00    0.210E-01
DAV:   4    -0.672357115855E+02    0.13935E-03   -0.41601E-03  1020   0.332E-01    0.900E-02
DAV:   5    -0.672355008697E+02    0.21072E-03   -0.15539E-03  1164   0.178E-01    0.518E-02
DAV:   6    -0.672363636287E+02   -0.86276E-03   -0.58864E-04   948   0.115E-01    0.401E-02
DAV:   7    -0.672365619970E+02   -0.19837E-03   -0.10586E-04  1092   0.386E-02    0.263E-02
DAV:   8    -0.672366250233E+02   -0.63026E-04   -0.28207E-04   996   0.638E-02    0.215E-02
DAV:   9    -0.672365881165E+02    0.36907E-04   -0.21625E-05  1176   0.221E-02    0.775E-03
DAV:  10    -0.672365924958E+02   -0.43793E-05   -0.31715E-05  1008   0.257E-02    0.130E-02
DAV:  11    -0.672366060420E+02   -0.13546E-04   -0.12428E-05  1080   0.163E-02    0.172E-03
DAV:  12    -0.672366269532E+02   -0.20911E-04   -0.14110E-06   960   0.531E-03    0.129E-03
DAV:  13    -0.672366299970E+02   -0.30438E-05   -0.15334E-07   768   0.148E-03    0.782E-04
DAV:  14    -0.672366308543E+02   -0.85736E-06   -0.13043E-07   708   0.162E-03
  20 F= -.67236631E+02 E0= -.67236631E+02  d E =-.213036E-02
 curvature:  32.95 expect dE= 0.340E+00 dE for cont linesearch  0.931E-03
 ZBRENT: bracketing found
 ZBRENT: interpolating
 opt :   0.6697  next Energy=   -67.237131 (dE=-0.263E-02)
 bond charge predicted
       N       E                     dE             d eps       ncg     rms          rms(c)
DAV:   1    -0.672910786004E+02   -0.54449E-01   -0.19165E+00  1080   0.739E+00    0.904E-01
DAV:   2    -0.672544132774E+02    0.36665E-01   -0.44552E-02  1080   0.107E+00    0.477E-01
DAV:   3    -0.672376245554E+02    0.16789E-01   -0.44565E-02  1200   0.931E-01    0.132E-01
DAV:   4    -0.672371314675E+02    0.49309E-03   -0.13791E-03   972   0.196E-01    0.617E-02
DAV:   5    -0.672366392341E+02    0.49223E-03   -0.63153E-04   984   0.111E-01    0.327E-02
DAV:   6    -0.672366340033E+02    0.52308E-05   -0.14910E-04   996   0.645E-02    0.307E-02
DAV:   7    -0.672366921286E+02   -0.58125E-04   -0.30174E-05  1044   0.221E-02    0.193E-02
DAV:   8    -0.672368699027E+02   -0.17777E-03   -0.13018E-04  1020   0.464E-02    0.189E-02
DAV:   9    -0.672369262728E+02   -0.56370E-04   -0.10385E-05  1176   0.151E-02    0.922E-03
DAV:  10    -0.672370560052E+02   -0.12973E-03   -0.27217E-05  1104   0.235E-02    0.106E-02
DAV:  11    -0.672370975268E+02   -0.41522E-04   -0.46912E-06  1128   0.100E-02    0.352E-03
DAV:  12    -0.672371236327E+02   -0.26106E-04   -0.18026E-06   888   0.580E-03    0.657E-04
DAV:  13    -0.672371305757E+02   -0.69429E-05   -0.22925E-07   708   0.169E-03    0.786E-04
DAV:  14    -0.672371317064E+02   -0.11307E-05   -0.51555E-08   732   0.976E-04    0.211E-04
DAV:  15    -0.672371318980E+02   -0.19161E-06   -0.11039E-08   768   0.479E-04
  21 F= -.67237132E+02 E0= -.67237132E+02  d E =-.263140E-02
 curvature:  -7.27 expect dE=-0.153E-01 dE for cont linesearch -0.134E-06
 trial: gam= 0.78603 g(F)=  0.852E-03 g(S)=  0.126E-02 ort =-0.836E-04 (trialstep = 0.138E+00)
 search vector abs. value=  0.237E+00
 bond charge predicted
       N       E                     dE             d eps       ncg     rms          rms(c)
DAV:   1    -0.672444649984E+02   -0.73333E-02   -0.25251E-01  1080   0.269E+00    0.328E-01
DAV:   2    -0.672394813479E+02    0.49837E-02   -0.54592E-03  1020   0.383E-01    0.172E-01
DAV:   3    -0.672371003608E+02    0.23810E-02   -0.57578E-03  1212   0.339E-01    0.500E-02
DAV:   4    -0.672371400641E+02   -0.39703E-04   -0.23343E-04   972   0.793E-02    0.219E-02
DAV:   5    -0.672371507950E+02   -0.10731E-04   -0.89536E-05  1032   0.421E-02    0.128E-02
DAV:   6    -0.672373083290E+02   -0.15753E-03   -0.47897E-05   984   0.317E-02    0.123E-02
DAV:   7    -0.672373431016E+02   -0.34773E-04   -0.82550E-06  1104   0.120E-02    0.624E-03
DAV:   8    -0.672373874112E+02   -0.44310E-04   -0.27206E-05  1020   0.192E-02    0.666E-03
DAV:   9    -0.672373895800E+02   -0.21688E-05   -0.12271E-06   972   0.551E-03    0.324E-03
DAV:  10    -0.672373917485E+02   -0.21686E-05   -0.42479E-06  1068   0.947E-03    0.336E-03
DAV:  11    -0.672373940956E+02   -0.23470E-05   -0.58829E-07   852   0.371E-03    0.160E-03
DAV:  12    -0.672373947257E+02   -0.63013E-06   -0.25261E-07   876   0.253E-03
  22 F= -.67237395E+02 E0= -.67237395E+02  d E =-.262828E-03
 ZBRENT: can't locate minimum, use default step
 trial-energy change:   -0.000263  1 .order   -0.000272   -0.000282   -0.000263
 step:   0.5520(harm=  2.0237)  dis= 0.00036  next Energy=   -67.239198 (dE=-0.207E-02)
 bond charge predicted
       N       E                     dE             d eps       ncg     rms          rms(c)
DAV:   1    -0.673025642125E+02   -0.65170E-01   -0.23210E+00  1056   0.820E+00    0.997E-01
DAV:   2    -0.672574712508E+02    0.45093E-01   -0.49525E-02   972   0.116E+00    0.522E-01
DAV:   3    -0.672372960438E+02    0.20175E-01   -0.52113E-02  1236   0.102E+00    0.152E-01
DAV:   4    -0.672373244457E+02   -0.28402E-04   -0.22654E-03   972   0.245E-01    0.649E-02
DAV:   5    -0.672372540022E+02    0.70443E-04   -0.81786E-04  1104   0.129E-01    0.389E-02
