<?xml version="1.0" encoding="ISO-8859-1"?>
<modeling>
 <generator>
  <i name="program" type="string">vasp </i>
  <i name="version" type="string">5.4.4.18Apr17-6-g9f103f2a35  </i>
  <i name="subversion" type="string">(build Mar 30 2023 15:39:25) complex            parallel </i>
  <i name="platform" type="string">LinuxIFC </i>
  <i name="date" type="string">2023 06 14 </i>
  <i name="time" type="string">15:19:09 </i>
 </generator>
 <incar>
  <i type="string" name="SYSTEM"> BC3</i>
  <i type="int" name="ISTART">     0</i>
  <i type="string" name="PREC">normal</i>
  <i type="string" name="ALGO">  Normal</i>
  <i type="int" name="ICHARG">     2</i>
  <i type="int" name="IBRION">     2</i>
  <i name="EDIFF">      0.00000100</i>
  <i name="EDIFFG">     -0.01000000</i>
  <i type="int" name="NSW">   128</i>
  <i type="int" name="ISIF">     3</i>
  <i name="ENCUT">    450.00000000</i>
  <i type="int" name="ISMEAR">     0</i>
  <i name="SIGMA">      0.10000000</i>
  <v type="int" name="KPOINT_BSE">    -1     0     0     0</v>
 </incar>
 <structure name="primitive_cell" >
  <crystal>
   <varray name="basis" >
    <v>       4.48142200       2.58735000       0.00000000 </v>
    <v>      -4.48142200       2.58735000       0.00000000 </v>
    <v>       0.00000000       0.00000000      15.00000000 </v>
   </varray>
   <i name="volume">    347.85021635 </i>
   <varray name="rec_basis" >
    <v>       0.11157173       0.19324792       0.00000000 </v>
    <v>      -0.11157173       0.19324792       0.00000000 </v>
    <v>       0.00000000       0.00000000       0.06666667 </v>
   </varray>
  </crystal>
  <varray name="positions" >
   <v>       0.33333300      -0.33333400       0.25000000 </v>
   <v>       0.16666600       0.33333300       0.25000000 </v>
   <v>      -0.33333400      -0.16666700       0.25000000 </v>
   <v>       0.16666600      -0.16666700       0.25000000 </v>
   <v>      -0.16666700       0.16666600       0.25000000 </v>
   <v>       0.33333300       0.16666600       0.25000000 </v>
   <v>      -0.16666700      -0.33333400       0.25000000 </v>
   <v>      -0.33333400       0.33333300       0.25000000 </v>
  </varray>
 </structure>
 <varray name="primitive_index" >
  <v type="int" >        1 </v>
  <v type="int" >        3 </v>
  <v type="int" >        7 </v>
  <v type="int" >        5 </v>
  <v type="int" >        6 </v>
  <v type="int" >        4 </v>
  <v type="int" >        8 </v>
  <v type="int" >        2 </v>
 </varray>
 <kpoints>
  <generation param="Gamma">
   <v type="int" name="divisions">      12       12        1 </v>
   <v name="usershift">      0.00000000       0.00000000       0.00000000 </v>
   <v name="genvec1">      0.08333333       0.00000000       0.00000000 </v>
   <v name="genvec2">      0.00000000       0.08333333       0.00000000 </v>
   <v name="genvec3">      0.00000000       0.00000000       1.00000000 </v>
   <v name="shift">      0.00000000       0.00000000       0.00000000 </v>
  </generation>
  <varray name="kpointlist" >
   <v>       0.00000000       0.00000000       0.00000000 </v>
   <v>       0.08333333       0.00000000       0.00000000 </v>
   <v>       0.16666667      -0.00000000       0.00000000 </v>
   <v>       0.25000000       0.00000000       0.00000000 </v>
   <v>       0.33333333       0.00000000       0.00000000 </v>
   <v>       0.41666667       0.00000000       0.00000000 </v>
   <v>       0.50000000       0.00000000       0.00000000 </v>
   <v>       0.08333333       0.08333333       0.00000000 </v>
   <v>       0.16666667       0.08333333       0.00000000 </v>
   <v>       0.25000000       0.08333333       0.00000000 </v>
   <v>       0.33333333       0.08333333       0.00000000 </v>
   <v>       0.41666667       0.08333333       0.00000000 </v>
   <v>       0.16666667       0.16666667       0.00000000 </v>
   <v>       0.25000000       0.16666667       0.00000000 </v>
   <v>       0.33333333       0.16666667       0.00000000 </v>
   <v>       0.41666667       0.16666667       0.00000000 </v>
   <v>       0.25000000       0.25000000       0.00000000 </v>
   <v>       0.33333333       0.25000000       0.00000000 </v>
   <v>       0.33333333       0.33333333       0.00000000 </v>
  </varray>
  <varray name="weights" >
   <v>       0.00694444 </v>
   <v>       0.04166667 </v>
   <v>       0.04166667 </v>
   <v>       0.04166667 </v>
   <v>       0.04166667 </v>
   <v>       0.04166667 </v>
   <v>       0.02083333 </v>
   <v>       0.04166667 </v>
   <v>       0.08333333 </v>
   <v>       0.08333333 </v>
   <v>       0.08333333 </v>
   <v>       0.08333333 </v>
   <v>       0.04166667 </v>
   <v>       0.08333333 </v>
   <v>       0.08333333 </v>
   <v>       0.04166667 </v>
   <v>       0.04166667 </v>
   <v>       0.08333333 </v>
   <v>       0.01388889 </v>
  </varray>
 </kpoints>
 <parameters>
  <separator name="general" >
   <i type="string" name="SYSTEM">BC3</i>
   <i type="logical" name="LCOMPAT"> F  </i>
  </separator>
  <separator name="electronic" >
   <i type="string" name="PREC">normal</i>
   <i name="ENMAX">    450.00000000</i>
   <i name="ENAUG">    644.87300000</i>
   <i name="EDIFF">      0.00000100</i>
   <i type="int" name="IALGO">    38</i>
   <i type="int" name="IWAVPR">    11</i>
   <i type="int" name="NBANDS">    24</i>
   <i name="NELECT">     30.00000000</i>
   <i type="int" name="TURBO">     0</i>
   <i type="int" name="IRESTART">     0</i>
   <i type="int" name="NREBOOT">     0</i>
   <i type="int" name="NMIN">     0</i>
   <i name="EREF">      0.00000000</i>
   <separator name="electronic smearing" >
    <i type="int" name="ISMEAR">     0</i>
    <i name="SIGMA">      0.10000000</i>
    <i name="KSPACING">      0.50000000</i>
    <i type="logical" name="KGAMMA"> T  </i>
   </separator>
   <separator name="electronic projectors" >
    <i type="logical" name="LREAL"> F  </i>
    <v name="ROPT">      0.00000000      0.00000000</v>
    <i type="int" name="LMAXPAW">  -100</i>
    <i type="int" name="LMAXMIX">     2</i>
    <i type="logical" name="NLSPLINE"> F  </i>
   </separator>
   <separator name="electronic startup" >
    <i type="int" name="ISTART">     0</i>
    <i type="int" name="ICHARG">     2</i>
    <i type="int" name="INIWAV">     1</i>
   </separator>
   <separator name="electronic spin" >
    <i type="int" name="ISPIN">     1</i>
    <i type="logical" name="LNONCOLLINEAR"> F  </i>
    <v name="MAGMOM">      1.00000000      1.00000000      1.00000000      1.00000000      1.00000000      1.00000000      1.00000000      1.00000000</v>
    <i name="NUPDOWN">     -1.00000000</i>
    <i type="logical" name="LSORBIT"> F  </i>
    <v name="SAXIS">      0.00000000      0.00000000      1.00000000</v>
    <i type="logical" name="LSPIRAL"> F  </i>
    <v name="QSPIRAL">      0.00000000      0.00000000      0.00000000</v>
    <i type="logical" name="LZEROZ"> F  </i>
   </separator>
   <separator name="electronic exchange-correlation" >
    <i type="logical" name="LASPH"> F  </i>
    <i type="logical" name="LMETAGGA"> F  </i>
   </separator>
   <separator name="electronic convergence" >
    <i type="int" name="NELM">    60</i>
    <i type="int" name="NELMDL">    -5</i>
    <i type="int" name="NELMIN">     2</i>
    <i name="ENINI">    450.00000000</i>
    <separator name="electronic convergence detail" >
     <i type="logical" name="LDIAG"> T  </i>
     <i type="logical" name="LSUBROT"> F  </i>
     <i name="WEIMIN">      0.00100000</i>
     <i name="EBREAK">      0.00000001</i>
     <i name="DEPER">      0.30000000</i>
     <i type="int" name="NRMM">     4</i>
     <i name="TIME">      0.40000000</i>
    </separator>
   </separator>
   <separator name="electronic mixer" >
    <i name="AMIX">      0.40000000</i>
    <i name="BMIX">      1.00000000</i>
    <i name="AMIN">      0.10000000</i>
    <i name="AMIX_MAG">      1.60000000</i>
    <i name="BMIX_MAG">      1.00000000</i>
    <separator name="electronic mixer details" >
     <i type="int" name="IMIX">     4</i>
     <i type="logical" name="MIXFIRST"> F  </i>
     <i type="int" name="MAXMIX">   -45</i>
     <i name="WC">    100.00000000</i>
     <i type="int" name="INIMIX">     1</i>
     <i type="int" name="MIXPRE">     1</i>
     <i type="int" name="MREMOVE">     5</i>
    </separator>
   </separator>
   <separator name="electronic dipolcorrection" >
    <i type="logical" name="LDIPOL"> F  </i>
    <i type="logical" name="LMONO"> F  </i>
    <i type="int" name="IDIPOL">     0</i>
    <i name="EPSILON">      1.00000000</i>
    <v name="DIPOL">   -100.00000000   -100.00000000   -100.00000000</v>
    <i name="EFIELD">      0.00000000</i>
   </separator>
  </separator>
  <separator name="grids" >
   <i type="int" name="NGX">    28</i>
   <i type="int" name="NGY">    28</i>
   <i type="int" name="NGZ">    80</i>
   <i type="int" name="NGXF">    56</i>
   <i type="int" name="NGYF">    56</i>
   <i type="int" name="NGZF">   160</i>
   <i type="logical" name="ADDGRID"> F  </i>
  </separator>
  <separator name="ionic" >
   <i type="int" name="NSW">   128</i>
   <i type="int" name="IBRION">     2</i>
   <i type="int" name="MDALGO">     0</i>
   <i type="int" name="ISIF">     3</i>
   <i name="PSTRESS">      0.00000000</i>
   <i name="EDIFFG">     -0.01000000</i>
   <i type="int" name="NFREE">     1</i>
   <i name="POTIM">      0.50000000</i>
   <i name="SMASS">     -3.00000000</i>
   <i name="SCALEE">      1.00000000</i>
  </separator>
  <separator name="ionic md" >
   <i name="TEBEG">      0.00010000</i>
   <i name="TEEND">      0.00010000</i>
   <i type="int" name="NBLOCK">     1</i>
   <i type="int" name="KBLOCK">   128</i>
   <i type="int" name="NPACO">   256</i>
   <i name="APACO">     16.00000000</i>
  </separator>
  <separator name="symmetry" >
   <i type="int" name="ISYM">     2</i>
   <i name="SYMPREC">      0.00001000</i>
  </separator>
  <separator name="dos" >
   <i type="int" name="LORBIT">     0</i>
   <v name="RWIGS">     -1.00000000     -1.00000000</v>
   <i type="int" name="NEDOS">   301</i>
   <i name="EMIN">     10.00000000</i>
   <i name="EMAX">    -10.00000000</i>
   <i name="EFERMI">      0.00000000</i>
  </separator>
  <separator name="writing" >
   <i type="int" name="NWRITE">     2</i>
   <i type="logical" name="LWAVE"> T  </i>
   <i type="logical" name="LDOWNSAMPLE"> F  </i>
   <i type="logical" name="LCHARG"> T  </i>
   <i type="logical" name="LPARD"> F  </i>
   <i type="logical" name="LVTOT"> F  </i>
   <i type="logical" name="LVHAR"> F  </i>
   <i type="logical" name="LELF"> F  </i>
   <i type="logical" name="LOPTICS"> F  </i>
   <v name="STM">      0.00000000      0.00000000      0.00000000      0.00000000      0.00000000      0.00000000      0.00000000</v>
  </separator>
  <separator name="performance" >
   <i type="int" name="NPAR">    12</i>
   <i type="int" name="NSIM">     4</i>
   <i type="int" name="NBLK">    -1</i>
   <i type="logical" name="LPLANE"> T  </i>
   <i type="logical" name="LSCALAPACK"> T  </i>
   <i type="logical" name="LSCAAWARE"> F  </i>
   <i type="logical" name="LSCALU"> F  </i>
   <i type="logical" name="LASYNC"> F  </i>
   <i type="logical" name="LORBITALREAL"> F  </i>
  </separator>
  <separator name="miscellaneous" >
   <i type="int" name="IDIOT">     3</i>
   <i type="int" name="ISPECIAL">     0</i>
   <i type="logical" name="LMUSIC"> F  </i>
   <v name="POMASS">     10.81100000     12.01100000</v>
   <v name="DARWINR">      0.00000000      0.00000000</v>
   <v name="DARWINV">      1.00000000      1.00000000</v>
   <i type="logical" name="LCORR"> T  </i>
  </separator>
  <i type="logical" name="GGA_COMPAT"> T  </i>
  <i type="logical" name="LBERRY"> F  </i>
  <i type="int" name="ICORELEVEL">     0</i>
  <i type="logical" name="LDAU"> F  </i>
  <i type="int" name="I_CONSTRAINED_M">     0</i>
  <separator name="electronic exchange-correlation" >
   <i type="string" name="GGA">--</i>
   <i type="int" name="VOSKOWN">     0</i>
   <i type="logical" name="LHFCALC"> F  </i>
   <i type="string" name="PRECFOCK"></i>
   <i type="logical" name="LSYMGRAD"> F  </i>
   <i type="logical" name="LHFONE"> F  </i>
   <i type="logical" name="LRHFCALC"> F  </i>
   <i type="logical" name="LTHOMAS"> F  </i>
   <i type="logical" name="LMODELHF"> F  </i>
   <i name="ENCUT4O">     -1.00000000</i>
   <i type="int" name="EXXOEP">     0</i>
   <i type="int" name="FOURORBIT">     0</i>
   <i name="AEXX">      0.00000000</i>
   <i name="HFALPHA">      0.00000000</i>
   <i name="MCALPHA">      0.00000000</i>
   <i name="ALDAX">      1.00000000</i>
   <i name="AGGAX">      1.00000000</i>
   <i name="ALDAC">      1.00000000</i>
   <i name="AGGAC">      1.00000000</i>
   <i type="int" name="NKREDX">     1</i>
   <i type="int" name="NKREDY">     1</i>
   <i type="int" name="NKREDZ">     1</i>
   <i type="logical" name="SHIFTRED"> F  </i>
   <i type="logical" name="ODDONLY"> F  </i>
   <i type="logical" name="EVENONLY"> F  </i>
   <i type="int" name="LMAXFOCK">     0</i>
   <i type="int" name="NMAXFOCKAE">     0</i>
   <i type="logical" name="LFOCKAEDFT"> F  </i>
   <i name="HFSCREEN">      0.00000000</i>
   <i name="HFSCREENC">      0.00000000</i>
   <i type="int" name="NBANDSGWLOW">     0</i>
  </separator>
  <separator name="vdW DFT" >
   <i type="logical" name="LUSE_VDW"> F  </i>
   <i name="Zab_VDW">     -0.84910000</i>
   <i name="PARAM1">      0.12340000</i>
   <i name="PARAM2">      1.00000000</i>
   <i name="PARAM3">      0.00000000</i>
  </separator>
  <separator name="model GW" >
   <i type="int" name="MODEL_GW">     0</i>
   <i name="MODEL_EPS0">     26.08876623</i>
   <i name="MODEL_ALPHA">      1.00000000</i>
  </separator>
  <separator name="linear response parameters" >
   <i type="logical" name="LEPSILON"> F  </i>
   <i type="logical" name="LRPA"> F  </i>
   <i type="logical" name="LNABLA"> F  </i>
   <i type="logical" name="LVEL"> F  </i>
   <i type="int" name="KINTER">     0</i>
   <i name="CSHIFT">      0.10000000</i>
   <i name="OMEGAMAX">     -1.00000000</i>
   <i name="DEG_THRESHOLD">      0.00200000</i>
   <i name="RTIME">     -0.10000000</i>
   <i name="WPLASMAI">      0.00000000</i>
   <v name="DFIELD">      0.00000000      0.00000000      0.00000000</v>
   <v name="WPLASMA">      0.00000000      0.00000000      0.00000000      0.00000000      0.00000000      0.00000000      0.00000000      0.00000000      0.00000000</v>
  </separator>
  <separator name="orbital magnetization" >
   <i type="logical" name="NUCIND"> F  </i>
   <v name="MAGPOS">      0.00000000      0.00000000      0.00000000</v>
   <i type="logical" name="LNICSALL"> T  </i>
   <i type="logical" name="ORBITALMAG"> F  </i>
   <i type="logical" name="LMAGBLOCH"> F  </i>
   <i type="logical" name="LCHIMAG"> F  </i>
   <i type="logical" name="LGAUGE"> T  </i>
   <i type="int" name="MAGATOM">     0</i>
   <v name="MAGDIPOL">      0.00000000      0.00000000      0.00000000</v>
   <v name="AVECCONST">      0.00000000      0.00000000      0.00000000</v>
  </separator>
  <separator name="response functions" >
   <i type="logical" name="LADDER"> F  </i>
   <i type="logical" name="LRPAFORCE"> F  </i>
   <i type="logical" name="LFXC"> F  </i>
   <i type="logical" name="LHARTREE"> T  </i>
   <i type="int" name="IBSE">     0</i>
   <v type="int" name="KPOINT">    -1     0     0     0</v>
   <i type="logical" name="LTCTE"> F  </i>
   <i type="logical" name="LTETE"> F  </i>
   <i type="logical" name="LTRIPLET"> F  </i>
   <i type="logical" name="LFXCEPS"> F  </i>
   <i type="logical" name="LFXHEG"> F  </i>
   <i type="int" name="NATURALO">     2</i>
   <i type="logical" name="L2ORDER"> F  </i>
   <i type="logical" name="LMP2LT"> F  </i>
   <i type="logical" name="LUSEW"> F  </i>
   <i name="ENCUTGW">     -2.00000000</i>
   <i name="ENCUTGWSOFT">     -2.00000000</i>
   <i name="ENCUTLF">     -1.00000000</i>
   <i type="int" name="LMAXMP2">    -1</i>
   <i name="SCISSOR">      0.00000000</i>
   <i type="int" name="NOMEGA">     0</i>
   <i type="int" name="NOMEGAR">     0</i>
   <i type="int" name="NBANDSGW">    -1</i>
   <i type="int" name="NBANDSO">    -1</i>
   <i type="int" name="NBANDSV">    -1</i>
   <i type="int" name="NELM">     1</i>
   <i type="int" name="NELMHF">     1</i>
   <i type="int" name="DIM">     3</i>
   <i type="int" name="ANTIRES">     0</i>
   <i name="OMEGAMAX">    -30.00000000</i>
   <i name="OMEGAMIN">    -30.00000000</i>
   <i name="OMEGATL">   -200.00000000</i>
   <i type="int" name="OMEGAGRID">   140</i>
   <i name="CSHIFT">     -0.10000000</i>
   <i type="logical" name="SELFENERGY"> F  </i>
   <i type="logical" name="LSPECTRAL"> F  </i>
   <i type="logical" name="LSPECTRALGW"> F  </i>
   <i type="logical" name="LSINGLES"> F  </i>
   <i type="logical" name="LFERMIGW"> F  </i>
   <i type="logical" name="ODDONLYGW"> F  </i>
   <i type="logical" name="EVENONLYGW"> F  </i>
   <i type="int" name="NKREDLFX">     1</i>
   <i type="int" name="NKREDLFY">     1</i>
   <i type="int" name="NKREDLFZ">     1</i>
   <i type="int" name="MAXMEM">  2800</i>
   <i type="int" name="TELESCOPE">     0</i>
   <i type="int" name="TAUPAR">     1</i>
   <i type="int" name="OMEGAPAR">    -1</i>
   <i name="LAMBDA">      1.00000000</i>
  </separator>
  <separator name="External order field" >
   <i name="OFIELD_KAPPA">      0.00000000</i>
   <v name="OFIELD_K">      0.00000000      0.00000000      0.00000000</v>
   <i name="OFIELD_Q6_NEAR">      0.00000000</i>
   <i name="OFIELD_Q6_FAR">      0.00000000</i>
   <i name="OFIELD_A">      0.00000000</i>
  </separator>
 </parameters>
 <atominfo>
  <atoms>       8 </atoms>
  <types>       2 </types>
  <array name="atoms" >
   <dimension dim="1">ion</dimension>
   <field type="string">element</field>
   <field type="int">atomtype</field>
   <set>
    <rc><c>B </c><c>   1</c></rc>
    <rc><c>B </c><c>   1</c></rc>
    <rc><c>C </c><c>   2</c></rc>
    <rc><c>C </c><c>   2</c></rc>
    <rc><c>C </c><c>   2</c></rc>
    <rc><c>C </c><c>   2</c></rc>
    <rc><c>C </c><c>   2</c></rc>
    <rc><c>C </c><c>   2</c></rc>
   </set>
  </array>
  <array name="atomtypes" >
   <dimension dim="1">type</dimension>
   <field type="int">atomspertype</field>
   <field type="string">element</field>
   <field>mass</field>
   <field>valence</field>
   <field type="string">pseudopotential</field>
   <set>
    <rc><c>   2</c><c>B </c><c>     10.81100000</c><c>      3.00000000</c><c>  PAW_PBE B 06Sep2000                   </c></rc>
    <rc><c>   6</c><c>C </c><c>     12.01100000</c><c>      4.00000000</c><c>  PAW_PBE C 08Apr2002                   </c></rc>
   </set>
  </array>
 </atominfo>
 <structure name="initialpos" >
  <crystal>
   <varray name="basis" >
    <v>       4.48142200       2.58735000       0.00000000 </v>
    <v>      -4.48142200       2.58735000       0.00000000 </v>
    <v>       0.00000000       0.00000000      15.00000000 </v>
   </varray>
   <i name="volume">    347.85021635 </i>
   <varray name="rec_basis" >
    <v>       0.11157173       0.19324792       0.00000000 </v>
    <v>      -0.11157173       0.19324792       0.00000000 </v>
    <v>       0.00000000       0.00000000       0.06666667 </v>
   </varray>
  </crystal>
  <varray name="positions" >
   <v>       0.33333300       0.66666600       0.25000000 </v>
   <v>       0.66666600       0.33333300       0.25000000 </v>
   <v>       0.16666600       0.33333300       0.25000000 </v>
   <v>       0.33333300       0.16666600       0.25000000 </v>
   <v>       0.16666600       0.83333300       0.25000000 </v>
   <v>       0.83333300       0.16666600       0.25000000 </v>
   <v>       0.66666600       0.83333300       0.25000000 </v>
   <v>       0.83333300       0.66666600       0.25000000 </v>
  </varray>
 </structure>
 <calculation>
  <scstep>
   <time name="dav">    1.30    1.30</time>
   <time name="total">    1.35    1.35</time>
   <energy>
    <i name="alphaZ">     14.58243785 </i>
    <i name="ewald">   2579.36867383 </i>
    <i name="hartreedc">  -3341.51811835 </i>
    <i name="XCdc">     90.82341729 </i>
    <i name="pawpsdc">    738.13200929 </i>
    <i name="pawaedc">   -739.83780425 </i>
    <i name="eentropy">     -0.00449015 </i>
    <i name="bandstr">   -152.77079246 </i>
    <i name="atom">   1025.20389953 </i>
    <i name="e_fr_energy">    213.97923257 </i>
    <i name="e_wo_entrp">    213.98372272 </i>
    <i name="e_0_energy">    213.98147765 </i>
   </energy>
  </scstep>
  <scstep>
   <time name="dav">    1.77    1.78</time>
   <time name="total">    1.77    1.78</time>
   <energy>
    <i name="e_fr_energy">    -41.07942466 </i>
    <i name="e_wo_entrp">    -41.06856042 </i>
    <i name="e_0_energy">    -41.07399254 </i>
   </energy>
  </scstep>
  <scstep>
   <time name="dav">    1.64    1.64</time>
   <time name="total">    1.64    1.64</time>
   <energy>
    <i name="e_fr_energy">    -71.46301308 </i>
    <i name="e_wo_entrp">    -71.46301308 </i>
    <i name="e_0_energy">    -71.46301308 </i>
   </energy>
  </scstep>
  <scstep>
   <time name="dav">    1.64    1.64</time>
   <time name="total">    1.64    1.64</time>
   <energy>
    <i name="e_fr_energy">    -72.11681706 </i>
    <i name="e_wo_entrp">    -72.11681706 </i>
    <i name="e_0_energy">    -72.11681706 </i>
   </energy>
  </scstep>
  <scstep>
   <time name="dav">    1.69    1.69</time>
   <time name="total">    1.76    1.76</time>
   <energy>
    <i name="e_fr_energy">    -72.13857359 </i>
    <i name="e_wo_entrp">    -72.13857359 </i>
    <i name="e_0_energy">    -72.13857359 </i>
   </energy>
  </scstep>
  <scstep>
   <time name="dav">    1.59    1.59</time>
   <time name="total">    1.70    1.70</time>
   <energy>
    <i name="e_fr_energy">    -68.07621832 </i>
    <i name="e_wo_entrp">    -68.07621830 </i>
    <i name="e_0_energy">    -68.07621831 </i>
   </energy>
  </scstep>
  <scstep>
   <time name="dav">    1.76    1.76</time>
   <time name="total">    1.87    1.87</time>
   <energy>
    <i name="e_fr_energy">    -66.34913833 </i>
    <i name="e_wo_entrp">    -66.34909225 </i>
    <i name="e_0_energy">    -66.34911529 </i>
   </energy>
  </scstep>
  <scstep>
   <time name="dav">    1.72    1.72</time>
   <time name="total">    1.84    1.84</time>
   <energy>
    <i name="e_fr_energy">    -66.31269507 </i>
    <i name="e_wo_entrp">    -66.31264687 </i>
    <i name="e_0_energy">    -66.31267097 </i>
   </energy>
  </scstep>
  <scstep>
   <time name="dav">    1.55    1.55</time>
   <time name="total">    1.66    1.66</time>
   <energy>
    <i name="e_fr_energy">    -66.30319812 </i>
    <i name="e_wo_entrp">    -66.30312964 </i>
    <i name="e_0_energy">    -66.30316388 </i>
   </energy>
  </scstep>
  <scstep>
   <time name="dav">    1.47    1.47</time>
   <time name="total">    1.59    1.59</time>
   <energy>
    <i name="e_fr_energy">    -66.29445908 </i>
    <i name="e_wo_entrp">    -66.29434858 </i>
    <i name="e_0_energy">    -66.29440383 </i>
   </energy>
  </scstep>
  <scstep>
   <time name="dav">    1.38    1.38</time>
   <time name="total">    1.50    1.50</time>
   <energy>
    <i name="e_fr_energy">    -66.29233649 </i>
    <i name="e_wo_entrp">    -66.29219933 </i>
    <i name="e_0_energy">    -66.29226791 </i>
   </energy>
  </scstep>
  <scstep>
   <time name="dav">    1.68    1.85</time>
   <time name="total">    1.80    1.97</time>
   <energy>
    <i name="e_fr_energy">    -66.29268338 </i>
    <i name="e_wo_entrp">    -66.29254236 </i>
    <i name="e_0_energy">    -66.29261287 </i>
   </energy>
  </scstep>
  <scstep>
   <time name="dav">    2.10    2.18</time>
   <time name="total">    2.24    2.33</time>
   <energy>
    <i name="e_fr_energy">    -66.29453506 </i>
    <i name="e_wo_entrp">    -66.29439917 </i>
    <i name="e_0_energy">    -66.29446711 </i>
   </energy>
  </scstep>
  <scstep>
   <time name="dav">    1.38    1.39</time>
   <time name="total">    1.50    1.54</time>
   <energy>
    <i name="e_fr_energy">    -66.29700345 </i>
    <i name="e_wo_entrp">    -66.29686938 </i>
    <i name="e_0_energy">    -66.29693641 </i>
   </energy>
  </scstep>
  <scstep>
   <time name="dav">    1.50    1.50</time>
   <time name="total">    1.61    1.61</time>
   <energy>
    <i name="e_fr_energy">    -66.29763662 </i>
    <i name="e_wo_entrp">    -66.29750067 </i>
    <i name="e_0_energy">    -66.29756865 </i>
   </energy>
  </scstep>
  <scstep>
   <time name="dav">    1.33    1.33</time>
   <time name="total">    1.45    1.45</time>
   <energy>
    <i name="e_fr_energy">    -66.29794201 </i>
    <i name="e_wo_entrp">    -66.29780631 </i>
    <i name="e_0_energy">    -66.29787416 </i>
   </energy>
  </scstep>
  <scstep>
   <time name="dav">    1.39    1.39</time>
   <time name="total">    1.51    1.51</time>
   <energy>
    <i name="e_fr_energy">    -66.29796918 </i>
    <i name="e_wo_entrp">    -66.29783337 </i>
    <i name="e_0_energy">    -66.29790127 </i>
   </energy>
  </scstep>
  <scstep>
   <time name="dav">    1.13    1.13</time>
   <time name="total">    1.25    1.25</time>
   <energy>
    <i name="e_fr_energy">    -66.29798249 </i>
    <i name="e_wo_entrp">    -66.29784681 </i>
    <i name="e_0_energy">    -66.29791465 </i>
   </energy>
  </scstep>
  <scstep>
   <time name="dav">    1.33    1.33</time>
   <time name="total">    1.37    1.37</time>
   <energy>
    <i name="alphaZ">     14.58243785 </i>
    <i name="ewald">   2579.36867383 </i>
    <i name="hartreedc">  -3473.13420724 </i>
    <i name="XCdc">     95.51938015 </i>
    <i name="pawpsdc">   2846.45239006 </i>
    <i name="pawaedc">  -2848.96599412 </i>
    <i name="eentropy">     -0.00013570 </i>
    <i name="bandstr">   -305.32442718 </i>
    <i name="atom">   1025.20389953 </i>
    <i name="e_fr_energy">    -66.29798283 </i>
    <i name="e_wo_entrp">    -66.29784713 </i>
    <i name="e_0_energy">    -66.29791498 </i>
   </energy>
  </scstep>
  <structure>
   <crystal>
    <varray name="basis" >
     <v>       4.48142200       2.58735000       0.00000000 </v>
     <v>      -4.48142200       2.58735000       0.00000000 </v>
     <v>       0.00000000       0.00000000      15.00000000 </v>
    </varray>
    <i name="volume">    347.85021635 </i>
    <varray name="rec_basis" >
     <v>       0.11157173       0.19324792       0.00000000 </v>
     <v>      -0.11157173       0.19324792       0.00000000 </v>
     <v>       0.00000000       0.00000000       0.06666667 </v>
    </varray>
   </crystal>
   <varray name="positions" >
    <v>       0.33333300       0.66666600       0.25000000 </v>
    <v>       0.66666600       0.33333300       0.25000000 </v>
    <v>       0.16666600       0.33333300       0.25000000 </v>
    <v>       0.33333300       0.16666600       0.25000000 </v>
    <v>       0.16666600       0.83333300       0.25000000 </v>
    <v>       0.83333300       0.16666600       0.25000000 </v>
    <v>       0.66666600       0.83333300       0.25000000 </v>
    <v>       0.83333300       0.66666600       0.25000000 </v>
   </varray>
  </structure>
  <varray name="forces" >
   <v>       0.00000000       0.00000000      -0.00000000 </v>
   <v>       0.00000000       0.00000000      -0.00000000 </v>
   <v>       2.14482563      -3.71494668       0.00000000 </v>
   <v>      -2.14482563      -3.71494668      -0.00000000 </v>
   <v>      -4.28965126       0.00000000      -0.00000000 </v>
   <v>       4.28965126       0.00000000       0.00000000 </v>
   <v>       2.14482563       3.71494668      -0.00000000 </v>
   <v>      -2.14482563       3.71494668      -0.00000000 </v>
  </varray>
  <varray name="stress" >
   <v>      -7.12219592       0.00000000      -0.00000000 </v>
   <v>       0.00000000      -7.12219483      -0.00000000 </v>
   <v>       0.00000000      -0.00000000      -0.85385537 </v>
  </varray>
  <energy>
   <i name="e_fr_energy">    -66.29798283 </i>
   <i name="e_wo_entrp">    -66.29791498 </i>
   <i name="e_0_energy">     -0.00013570 </i>
  </energy>
  <time name="totalsc">   33.72   34.24</time>
 </calculation>
 <calculation>
  <scstep>
   <time name="dav">    1.30    1.31</time>
   <time name="total">    1.42    1.42</time>
   <energy>
    <i name="alphaZ">     14.87487326 </i>
    <i name="ewald">   2729.84186591 </i>
    <i name="hartreedc">  -3589.37665664 </i>
    <i name="XCdc">     97.35247983 </i>
    <i name="pawpsdc">   2846.44274596 </i>
    <i name="pawaedc">  -2848.95634809 </i>
    <i name="eentropy">     -0.00000000 </i>
    <i name="bandstr">   -339.23192967 </i>
    <i name="atom">   1025.20389953 </i>
    <i name="e_fr_energy">    -63.84906991 </i>
    <i name="e_wo_entrp">    -63.84906991 </i>
    <i name="e_0_energy">    -63.84906991 </i>
   </energy>
  </scstep>
  <scstep>
   <time name="dav">    1.73    1.73</time>
   <time name="total">    1.84    1.84</time>
   <energy>
    <i name="e_fr_energy">    -63.27639767 </i>
    <i name="e_wo_entrp">    -63.27639767 </i>
    <i name="e_0_energy">    -63.27639767 </i>
   </energy>
  </scstep>
  <scstep>
   <time name="dav">    1.41    1.41</time>
   <time name="total">    1.52    1.52</time>
   <energy>
    <i name="e_fr_energy">    -62.98434516 </i>
    <i name="e_wo_entrp">    -62.98434516 </i>
    <i name="e_0_energy">    -62.98434516 </i>
   </energy>
  </scstep>
  <scstep>
   <time name="dav">    1.62    1.63</time>
   <time name="total">    1.74    1.74</time>
   <energy>
    <i name="e_fr_energy">    -62.97042381 </i>
    <i name="e_wo_entrp">    -62.97042381 </i>
    <i name="e_0_energy">    -62.97042381 </i>
   </energy>
  </scstep>
  <scstep>
   <time name="dav">    1.55    1.55</time>
   <time name="total">    1.66    1.66</time>
   <energy>
    <i name="e_fr_energy">    -62.96603546 </i>
    <i name="e_wo_entrp">    -62.96603546 </i>
    <i name="e_0_energy">    -62.96603546 </i>
   </energy>
  </scstep>
  <scstep>
   <time name="dav">    1.50    1.50</time>
   <time name="total">    1.61    1.61</time>
   <energy>
    <i name="e_fr_energy">    -62.96620805 </i>
    <i name="e_wo_entrp">    -62.96620805 </i>
    <i name="e_0_energy">    -62.96620805 </i>
   </energy>
  </scstep>
  <scstep>
   <time name="dav">    1.30    1.30</time>
   <time name="total">    1.42    1.42</time>
   <energy>
    <i name="e_fr_energy">    -62.96636454 </i>
    <i name="e_wo_entrp">    -62.96636454 </i>
    <i name="e_0_energy">    -62.96636454 </i>
   </energy>
  </scstep>
  <scstep>
   <time name="dav">    1.40    1.40</time>
   <time name="total">    1.51    1.51</time>
   <energy>
    <i name="e_fr_energy">    -62.96648904 </i>
    <i name="e_wo_entrp">    -62.96648904 </i>
    <i name="e_0_energy">    -62.96648904 </i>
   </energy>
  </scstep>
  <scstep>
   <time name="dav">    1.33    1.33</time>
   <time name="total">    1.44    1.45</time>
   <energy>
    <i name="e_fr_energy">    -62.96673406 </i>
    <i name="e_wo_entrp">    -62.96673406 </i>
    <i name="e_0_energy">    -62.96673406 </i>
   </energy>
  </scstep>
  <scstep>
   <time name="dav">    1.48    1.48</time>
   <time name="total">    1.59    1.59</time>
   <energy>
    <i name="e_fr_energy">    -62.96681085 </i>
    <i name="e_wo_entrp">    -62.96681085 </i>
    <i name="e_0_energy">    -62.96681085 </i>
   </energy>
  </scstep>
  <scstep>
   <time name="dav">    1.49    1.51</time>
   <time name="total">    1.61    1.63</time>
   <energy>
    <i name="e_fr_energy">    -62.96685355 </i>
    <i name="e_wo_entrp">    -62.96685355 </i>
    <i name="e_0_energy">    -62.96685355 </i>
   </energy>
  </scstep>
  <scstep>
   <time name="dav">    1.40    1.41</time>
   <time name="total">    1.52    1.52</time>
   <energy>
    <i name="e_fr_energy">    -62.96691420 </i>
    <i name="e_wo_entrp">    -62.96691420 </i>
    <i name="e_0_energy">    -62.96691420 </i>
   </energy>
  </scstep>
  <scstep>
   <time name="dav">    1.24    1.24</time>
   <time name="total">    1.35    1.35</time>
   <energy>
    <i name="e_fr_energy">    -62.96692366 </i>
    <i name="e_wo_entrp">    -62.96692366 </i>
    <i name="e_0_energy">    -62.96692366 </i>
   </energy>
  </scstep>
  <scstep>
   <time name="dav">    1.15    1.15</time>
   <time name="total">    1.27    1.27</time>
   <energy>
    <i name="e_fr_energy">    -62.96693439 </i>
    <i name="e_wo_entrp">    -62.96693439 </i>
    <i name="e_0_energy">    -62.96693439 </i>
   </energy>
  </scstep>
  <scstep>
   <time name="dav">    1.18    1.19</time>
   <time name="total">    1.23    1.23</time>
   <energy>
    <i name="alphaZ">     14.87487326 </i>
    <i name="ewald">   2729.84186591 </i>
    <i name="hartreedc">  -3621.14342673 </i>
    <i name="XCdc">     98.43923071 </i>
    <i name="pawpsdc">   3569.36244408 </i>
    <i name="pawaedc">  -3572.16412085 </i>
    <i name="eentropy">     -0.00000000 </i>
    <i name="bandstr">   -307.38170103 </i>
    <i name="atom">   1025.20389953 </i>
    <i name="e_fr_energy">    -62.96693511 </i>
    <i name="e_wo_entrp">    -62.96693511 </i>
    <i name="e_0_energy">    -62.96693511 </i>
   </energy>
  </scstep>
  <structure>
   <crystal>
    <varray name="basis" >
     <v>       4.43963390       2.56322363      -0.00000000 </v>
     <v>      -4.43963390       2.56322363       0.00000000 </v>
     <v>       0.00000000      -0.00000000      14.98323134 </v>
    </varray>
    <i name="volume">    341.01158852 </i>
    <varray name="rec_basis" >
     <v>       0.11262190       0.19506687      -0.00000000 </v>
     <v>      -0.11262190       0.19506687       0.00000000 </v>
     <v>       0.00000000       0.00000000       0.06674128 </v>
    </varray>
   </crystal>
   <varray name="positions" >
    <v>       0.33333300       0.66666600       0.25000000 </v>
    <v>       0.66666600       0.33333300       0.25000000 </v>
    <v>       0.14357688       0.28715476       0.25000000 </v>
    <v>       0.28715476       0.14357688       0.25000000 </v>
    <v>       0.14357688       0.85642212       0.25000000 </v>
    <v>       0.85642212       0.14357688       0.25000000 </v>
    <v>       0.71284424       0.85642212       0.25000000 </v>
    <v>       0.85642212       0.71284424       0.25000000 </v>
   </varray>
  </structure>
  <varray name="forces" >
   <v>       0.00000000       0.00000000      -0.00000000 </v>
   <v>       0.00000000       0.00000000      -0.00000000 </v>
   <v>      -5.47713285       9.48667167      -0.00000000 </v>
   <v>       5.47713285       9.48667167      -0.00000000 </v>
   <v>      10.95426571       0.00000000      -0.00000000 </v>
   <v>     -10.95426571       0.00000000      -0.00000000 </v>
   <v>      -5.47713285      -9.48667167       0.00000000 </v>
   <v>       5.47713285      -9.48667167       0.00000000 </v>
  </varray>
  <varray name="stress" >
   <v>     117.17280044       0.00000000       0.00000000 </v>
   <v>       0.00000000     117.17278284       0.00000000 </v>
   <v>       0.00000000       0.00000000      -0.72189484 </v>
  </varray>
  <energy>
   <i name="e_fr_energy">    -62.96693511 </i>
   <i name="e_wo_entrp">    -62.96693511 </i>
   <i name="e_0_energy">     -0.00000000 </i>
  </energy>
  <time name="totalsc">   24.80   24.93</time>
 </calculation>
 <calculation>
  <scstep>
   <time name="dav">    1.30    1.30</time>
   <time name="total">    1.42    1.42</time>
   <energy>
    <i name="alphaZ">     14.68310877 </i>
    <i name="ewald">   2616.70276421 </i>
    <i name="hartreedc">  -3529.56297605 </i>
    <i name="XCdc">     96.83881547 </i>
    <i name="pawpsdc">   3569.38820573 </i>
    <i name="pawaedc">  -3572.18985678 </i>
    <i name="eentropy">     -0.00307658 </i>
    <i name="bandstr">   -288.83700204 </i>
    <i name="atom">   1025.20389953 </i>
    <i name="e_fr_energy">    -67.77611774 </i>
    <i name="e_wo_entrp">    -67.77304116 </i>
    <i name="e_0_energy">    -67.77457945 </i>
   </energy>
  </scstep>
  <scstep>
   <time name="dav">    1.62    1.62</time>
   <time name="total">    1.73    1.73</time>
   <energy>
    <i name="e_fr_energy">    -67.30734642 </i>
    <i name="e_wo_entrp">    -67.30734393 </i>
    <i name="e_0_energy">    -67.30734518 </i>
   </energy>
  </scstep>
  <scstep>
   <time name="dav">    1.47    1.47</time>
   <time name="total">    1.58    1.58</time>
   <energy>
    <i name="e_fr_energy">    -67.23153835 </i>
    <i name="e_wo_entrp">    -67.23153824 </i>
    <i name="e_0_energy">    -67.23153829 </i>
   </energy>
  </scstep>
  <scstep>
   <time name="dav">    1.59    1.60</time>
   <time name="total">    1.71    1.71</time>
   <energy>
    <i name="e_fr_energy">    -67.22870829 </i>
    <i name="e_wo_entrp">    -67.22870789 </i>
    <i name="e_0_energy">    -67.22870809 </i>
   </energy>
  </scstep>
  <scstep>
   <time name="dav">    1.53    1.53</time>
   <time name="total">    1.64    1.65</time>
   <energy>
    <i name="e_fr_energy">    -67.22585634 </i>
    <i name="e_wo_entrp">    -67.22585616 </i>
    <i name="e_0_energy">    -67.22585625 </i>
   </energy>
  </scstep>
  <scstep>
   <time name="dav">    1.51    1.51</time>
   <time name="total">    1.62    1.63</time>
   <energy>
    <i name="e_fr_energy">    -67.22589953 </i>
    <i name="e_wo_entrp">    -67.22589937 </i>
    <i name="e_0_energy">    -67.22589945 </i>
   </energy>
  </scstep>
  <scstep>
   <time name="dav">    1.60    1.60</time>
   <time name="total">    1.71    1.72</time>
   <energy>
    <i name="e_fr_energy">    -67.22606984 </i>
    <i name="e_wo_entrp">    -67.22606969 </i>
    <i name="e_0_energy">    -67.22606976 </i>
   </energy>
  </scstep>
  <scstep>
   <time name="dav">    1.53    1.53</time>
   <time name="total">    1.64    1.64</time>
   <energy>
    <i name="e_fr_energy">    -67.22613516 </i>
    <i name="e_wo_entrp">    -67.22613499 </i>
    <i name="e_0_energy">    -67.22613507 </i>
   </energy>
  </scstep>
  <scstep>
   <time name="dav">    1.37    1.37</time>
   <time name="total">    1.48    1.48</time>
   <energy>
    <i name="e_fr_energy">    -67.22628088 </i>
    <i name="e_wo_entrp">    -67.22628072 </i>
    <i name="e_0_energy">    -67.22628080 </i>
   </energy>
  </scstep>
  <scstep>
   <time name="dav">    1.53    1.53</time>
   <time name="total">    1.64    1.64</time>
   <energy>
    <i name="e_fr_energy">    -67.22631980 </i>
    <i name="e_wo_entrp">    -67.22631964 </i>
    <i name="e_0_energy">    -67.22631972 </i>
   </energy>
  </scstep>
  <scstep>
   <time name="dav">    1.43    1.43</time>
   <time name="total">    1.54    1.54</time>
   <energy>
    <i name="e_fr_energy">    -67.22632985 </i>
    <i name="e_wo_entrp">    -67.22632970 </i>
    <i name="e_0_energy">    -67.22632977 </i>
   </energy>
  </scstep>
  <scstep>
   <time name="dav">    1.41    1.41</time>
   <time name="total">    1.52    1.52</time>
   <energy>
    <i name="e_fr_energy">    -67.22633373 </i>
    <i name="e_wo_entrp">    -67.22633357 </i>
    <i name="e_0_energy">    -67.22633365 </i>
   </energy>
  </scstep>
  <scstep>
   <time name="dav">    1.36    1.36</time>
   <time name="total">    1.48    1.48</time>
   <energy>
    <i name="e_fr_energy">    -67.22633628 </i>
    <i name="e_wo_entrp">    -67.22633613 </i>
    <i name="e_0_energy">    -67.22633621 </i>
   </energy>
  </scstep>
  <scstep>
   <time name="dav">    1.12    1.12</time>
   <time name="total">    1.24    1.24</time>
   <energy>
    <i name="e_fr_energy">    -67.22634005 </i>
    <i name="e_wo_entrp">    -67.22633989 </i>
    <i name="e_0_energy">    -67.22633997 </i>
   </energy>
  </scstep>
  <scstep>
   <time name="dav">    1.17    1.17</time>
   <time name="total">    1.21    1.21</time>
   <energy>
    <i name="alphaZ">     14.68310877 </i>
    <i name="ewald">   2616.70276421 </i>
    <i name="hartreedc">  -3512.30268146 </i>
    <i name="XCdc">     96.21205010 </i>
    <i name="pawpsdc">   2933.51764387 </i>
    <i name="pawaedc">  -2936.06338957 </i>
    <i name="eentropy">     -0.00000016 </i>
    <i name="bandstr">   -305.17973578 </i>
    <i name="atom">   1025.20389953 </i>
    <i name="e_fr_energy">    -67.22634049 </i>
    <i name="e_wo_entrp">    -67.22634034 </i>
    <i name="e_0_energy">    -67.22634041 </i>
   </energy>
  </scstep>
  <structure>
   <crystal>
    <varray name="basis" >
     <v>       4.46690046       2.57896598      -0.00000000 </v>
     <v>      -4.46690046       2.57896598       0.00000000 </v>
     <v>       0.00000000      -0.00000000      14.99417282 </v>
    </varray>
    <i name="volume">    345.46527176 </i>
    <varray name="rec_basis" >
     <v>       0.11193444       0.19387615      -0.00000000 </v>
     <v>      -0.11193444       0.19387615       0.00000000 </v>
     <v>       0.00000000       0.00000000       0.06669258 </v>
    </varray>
   </crystal>
   <varray name="positions" >
    <v>       0.33333300       0.66666600       0.25000000 </v>
    <v>       0.66666600       0.33333300       0.25000000 </v>
    <v>       0.15878424       0.31756947       0.25000000 </v>
    <v>       0.31756947       0.15878424       0.25000000 </v>
    <v>       0.15878424       0.84121476       0.25000000 </v>
    <v>       0.84121476       0.15878424       0.25000000 </v>
    <v>       0.68242953       0.84121476       0.25000000 </v>
    <v>       0.84121476       0.68242953       0.25000000 </v>
   </varray>
  </structure>
  <varray name="forces" >
   <v>      -0.00000000      -0.00000000      -0.00000000 </v>
   <v>      -0.00000000       0.00000000      -0.00000000 </v>
   <v>      -0.00583304       0.01010313      -0.00000000 </v>
   <v>       0.00583304       0.01010313      -0.00000000 </v>
   <v>       0.01166609      -0.00000000       0.00000000 </v>
   <v>      -0.01166609      -0.00000000      -0.00000000 </v>
   <v>      -0.00583304      -0.01010313       0.00000000 </v>
   <v>       0.00583304      -0.01010313       0.00000000 </v>
  </varray>
  <varray name="stress" >
   <v>       6.52548111       0.00000000      -0.00000000 </v>
   <v>       0.00000000       6.52548012      -0.00000000 </v>
   <v>       0.00000000       0.00000000      -0.78779432 </v>
  </varray>
  <energy>
   <i name="e_fr_energy">    -67.22634049 </i>
   <i name="e_wo_entrp">    -67.22634041 </i>
   <i name="e_0_energy">     -0.00000016 </i>
  </energy>
  <time name="totalsc">   25.24   25.32</time>
 </calculation>
 <calculation>
  <scstep>
   <time name="dav">    1.30    1.30</time>
   <time name="total">    1.42    1.42</time>
   <energy>
    <i name="alphaZ">     14.68234874 </i>
    <i name="ewald">   2616.36527712 </i>
    <i name="hartreedc">  -3512.01760096 </i>
    <i name="XCdc">     96.20763564 </i>
    <i name="pawpsdc">   2933.47418756 </i>
    <i name="pawaedc">  -2936.01992706 </i>
    <i name="eentropy">     -0.00000017 </i>
    <i name="bandstr">   -305.12221744 </i>
    <i name="atom">   1025.20389953 </i>
    <i name="e_fr_energy">    -67.22639705 </i>
    <i name="e_wo_entrp">    -67.22639687 </i>
    <i name="e_0_energy">    -67.22639696 </i>
   </energy>
  </scstep>
  <scstep>
   <time name="dav">    1.51    1.51</time>
   <time name="total">    1.62    1.62</time>
   <energy>
    <i name="e_fr_energy">    -67.22638943 </i>
    <i name="e_wo_entrp">    -67.22638927 </i>
    <i name="e_0_energy">    -67.22638935 </i>
   </energy>
  </scstep>
  <scstep>
   <time name="dav">    1.32    1.32</time>
   <time name="total">    1.43    1.44</time>
   <energy>
    <i name="e_fr_energy">    -67.22638808 </i>
    <i name="e_wo_entrp">    -67.22638791 </i>
    <i name="e_0_energy">    -67.22638799 </i>
   </energy>
  </scstep>
  <scstep>
   <time name="dav">    1.69    1.69</time>
   <time name="total">    1.73    1.74</time>
   <energy>
    <i name="alphaZ">     14.68234874 </i>
    <i name="ewald">   2616.36527712 </i>
    <i name="hartreedc">  -3511.96795079 </i>
    <i name="XCdc">     96.20566838 </i>
    <i name="pawpsdc">   2932.28639958 </i>
    <i name="pawaedc">  -2934.83163954 </i>
    <i name="eentropy">     -0.00000017 </i>
    <i name="bandstr">   -305.17039098 </i>
    <i name="atom">   1025.20389953 </i>
    <i name="e_fr_energy">    -67.22638813 </i>
    <i name="e_wo_entrp">    -67.22638796 </i>
    <i name="e_0_energy">    -67.22638804 </i>
   </energy>
  </scstep>
  <structure>
   <crystal>
    <varray name="basis" >
     <v>       4.46700955       2.57902897      -0.00000000 </v>
     <v>      -4.46700955       2.57902897       0.00000000 </v>
     <v>       0.00000000      -0.00000000      14.99421659 </v>
    </varray>
    <i name="volume">    345.48315465 </i>
    <varray name="rec_basis" >
     <v>       0.11193171       0.19387142      -0.00000000 </v>
     <v>      -0.11193171       0.19387142       0.00000000 </v>
     <v>       0.00000000       0.00000000       0.06669238 </v>
    </varray>
   </crystal>
   <varray name="positions" >
    <v>       0.33333300       0.66666600       0.25000000 </v>
    <v>       0.66666600       0.33333300       0.25000000 </v>
    <v>       0.15884471       0.31769042       0.25000000 </v>
    <v>       0.31769042       0.15884471       0.25000000 </v>
    <v>       0.15884471       0.84115429       0.25000000 </v>
    <v>       0.84115429       0.15884471       0.25000000 </v>
    <v>       0.68230858       0.84115429       0.25000000 </v>
    <v>       0.84115429       0.68230858       0.25000000 </v>
   </varray>
  </structure>
  <varray name="forces" >
   <v>       0.00000000      -0.00000000      -0.00000000 </v>
   <v>       0.00000000      -0.00000000      -0.00000000 </v>
   <v>       0.01176664      -0.02038042       0.00000000 </v>
   <v>      -0.01176664      -0.02038042       0.00000000 </v>
   <v>      -0.02353329      -0.00000000       0.00000000 </v>
   <v>       0.02353329      -0.00000000       0.00000000 </v>
   <v>       0.01176664       0.02038042      -0.00000000 </v>
   <v>      -0.01176664       0.02038042       0.00000000 </v>
  </varray>
  <varray name="stress" >
   <v>       6.31939381       0.00000000      -0.00000000 </v>
   <v>       0.00000000       6.31939285       0.00000000 </v>
   <v>       0.00000000       0.00000000      -0.79613697 </v>
  </varray>
  <energy>
   <i name="e_fr_energy">    -67.22638813 </i>
   <i name="e_wo_entrp">    -67.22638804 </i>
   <i name="e_0_energy">     -0.00000017 </i>
  </energy>
  <time name="totalsc">    8.28    8.35</time>
 </calculation>
 <calculation>
  <scstep>
   <time name="dav">    1.44    1.44</time>
   <time name="total">    1.56    1.56</time>
   <energy>
    <i name="alphaZ">     14.48878672 </i>
    <i name="ewald">   2563.52416055 </i>
    <i name="hartreedc">  -3460.71441957 </i>
    <i name="XCdc">     95.80222562 </i>
    <i name="pawpsdc">   2932.21033542 </i>
    <i name="pawaedc">  -2934.75556700 </i>
    <i name="eentropy">     -0.00000005 </i>
    <i name="bandstr">   -302.98758004 </i>
    <i name="atom">   1025.20389953 </i>
    <i name="e_fr_energy">    -67.22815882 </i>
    <i name="e_wo_entrp">    -67.22815877 </i>
    <i name="e_0_energy">    -67.22815879 </i>
   </energy>
  </scstep>
  <scstep>
   <time name="dav">    1.46    1.46</time>
   <time name="total">    1.57    1.57</time>
   <energy>
    <i name="e_fr_energy">    -67.22441352 </i>
    <i name="e_wo_entrp">    -67.22441347 </i>
    <i name="e_0_energy">    -67.22441350 </i>
   </energy>
  </scstep>
  <scstep>
   <time name="dav">    1.63    1.63</time>
   <time name="total">    1.74    1.74</time>
   <energy>
    <i name="e_fr_energy">    -67.22255378 </i>
    <i name="e_wo_entrp">    -67.22255375 </i>
    <i name="e_0_energy">    -67.22255376 </i>
   </energy>
  </scstep>
  <scstep>
   <time name="dav">    1.58    1.59</time>
   <time name="total">    1.70    1.70</time>
   <energy>
    <i name="e_fr_energy">    -67.22243769 </i>
    <i name="e_wo_entrp">    -67.22243767 </i>
    <i name="e_0_energy">    -67.22243768 </i>
   </energy>
  </scstep>
  <scstep>
   <time name="dav">    1.49    1.50</time>
   <time name="total">    1.61    1.61</time>
   <energy>
    <i name="e_fr_energy">    -67.22243231 </i>
    <i name="e_wo_entrp">    -67.22243228 </i>
    <i name="e_0_energy">    -67.22243230 </i>
   </energy>
  </scstep>
  <scstep>
   <time name="dav">    1.38    1.38</time>
   <time name="total">    1.49    1.49</time>
   <energy>
    <i name="e_fr_energy">    -67.22248474 </i>
    <i name="e_wo_entrp">    -67.22248471 </i>
    <i name="e_0_energy">    -67.22248472 </i>
   </energy>
  </scstep>
  <scstep>
   <time name="dav">    1.37    1.37</time>
   <time name="total">    1.48    1.48</time>
   <energy>
    <i name="e_fr_energy">    -67.22253469 </i>
    <i name="e_wo_entrp">    -67.22253467 </i>
    <i name="e_0_energy">    -67.22253468 </i>
   </energy>
  </scstep>
  <scstep>
   <time name="dav">    1.45    1.45</time>
   <time name="total">    1.56    1.57</time>
   <energy>
    <i name="e_fr_energy">    -67.22257083 </i>
    <i name="e_wo_entrp">    -67.22257081 </i>
    <i name="e_0_energy">    -67.22257082 </i>
   </energy>
  </scstep>
  <scstep>
   <time name="dav">    1.59    1.60</time>
   <time name="total">    1.71    1.71</time>
   <energy>
    <i name="e_fr_energy">    -67.22257695 </i>
    <i name="e_wo_entrp">    -67.22257693 </i>
    <i name="e_0_energy">    -67.22257694 </i>
   </energy>
  </scstep>
  <scstep>
   <time name="dav">    1.31    1.32</time>
   <time name="total">    1.43    1.43</time>
   <energy>
    <i name="e_fr_energy">    -67.22257825 </i>
    <i name="e_wo_entrp">    -67.22257822 </i>
    <i name="e_0_energy">    -67.22257824 </i>
   </energy>
  </scstep>
  <scstep>
   <time name="dav">    1.32    1.32</time>
   <time name="total">    1.43    1.44</time>
   <energy>
    <i name="e_fr_energy">    -67.22257932 </i>
    <i name="e_wo_entrp">    -67.22257930 </i>
    <i name="e_0_energy">    -67.22257931 </i>
   </energy>
  </scstep>
  <scstep>
   <time name="dav">    1.23    1.24</time>
   <time name="total">    1.28    1.28</time>
   <energy>
    <i name="alphaZ">     14.48878672 </i>
    <i name="ewald">   2563.52416055 </i>
    <i name="hartreedc">  -3458.56051890 </i>
    <i name="XCdc">     95.77299857 </i>
    <i name="pawpsdc">   2843.47405965 </i>
    <i name="pawaedc">  -2845.97751779 </i>
    <i name="eentropy">     -0.00000002 </i>
    <i name="bandstr">   -305.14844818 </i>
    <i name="atom">   1025.20389953 </i>
    <i name="e_fr_energy">    -67.22257987 </i>
    <i name="e_wo_entrp">    -67.22257985 </i>
    <i name="e_0_energy">    -67.22257986 </i>
   </energy>
  </scstep>
  <structure>
   <crystal>
    <varray name="basis" >
     <v>       4.49878060       2.59737199      -0.00000000 </v>
     <v>      -4.49878060       2.59737199       0.00000000 </v>
     <v>       0.00000000       0.00000000      14.98067669 </v>
    </varray>
    <i name="volume">    350.09861479 </i>
    <varray name="rec_basis" >
     <v>       0.11114123       0.19250227      -0.00000000 </v>
     <v>      -0.11114123       0.19250227       0.00000000 </v>
     <v>       0.00000000       0.00000000       0.06675266 </v>
    </varray>
   </crystal>
   <varray name="positions" >
    <v>       0.33333300       0.66666600       0.25000000 </v>
    <v>       0.66666600       0.33333300       0.25000000 </v>
    <v>       0.15866387       0.31732874       0.25000000 </v>
    <v>       0.31732874       0.15866387       0.25000000 </v>
    <v>       0.15866387       0.84133513       0.25000000 </v>
    <v>       0.84133513       0.15866387       0.25000000 </v>
    <v>       0.68267026       0.84133513       0.25000000 </v>
    <v>       0.84133513       0.68267026       0.25000000 </v>
   </varray>
  </structure>
  <varray name="forces" >
   <v>      -0.00000000       0.00000000       0.00000000 </v>
   <v>      -0.00000000       0.00000000       0.00000000 </v>
   <v>       0.03161170      -0.05475306       0.00000000 </v>
   <v>      -0.03161170      -0.05475306       0.00000000 </v>
   <v>      -0.06322339       0.00000000      -0.00000000 </v>
   <v>       0.06322339       0.00000000       0.00000000 </v>
   <v>       0.03161170       0.05475306      -0.00000000 </v>
   <v>      -0.03161170       0.05475306      -0.00000000 </v>
  </varray>
  <varray name="stress" >
   <v>      -8.95616744       0.00000000       0.00000000 </v>
   <v>       0.00000000      -8.95616606      -0.00000000 </v>
   <v>      -0.00000000       0.00000000      -0.83561254 </v>
  </varray>
  <energy>
   <i name="e_fr_energy">    -67.22257987 </i>
   <i name="e_wo_entrp">    -67.22257986 </i>
   <i name="e_0_energy">     -0.00000002 </i>
  </energy>
  <time name="totalsc">   20.63   20.70</time>
 </calculation>
 <calculation>
  <scstep>
   <time name="dav">    1.42    1.42</time>
   <time name="total">    1.53    1.54</time>
   <energy>
    <i name="alphaZ">     14.60112278 </i>
    <i name="ewald">   2594.17529427 </i>
    <i name="hartreedc">  -3488.27269480 </i>
    <i name="XCdc">     96.00743987 </i>
    <i name="pawpsdc">   2843.46638873 </i>
    <i name="pawaedc">  -2845.96985892 </i>
    <i name="eentropy">     -0.00000005 </i>
    <i name="bandstr">   -306.44390895 </i>
    <i name="atom">   1025.20389953 </i>
    <i name="e_fr_energy">    -67.23231753 </i>
    <i name="e_wo_entrp">    -67.23231749 </i>
    <i name="e_0_energy">    -67.23231751 </i>
   </energy>
  </scstep>
  <scstep>
   <time name="dav">    1.61    1.61</time>
   <time name="total">    1.73    1.73</time>
   <energy>
    <i name="e_fr_energy">    -67.23107365 </i>
    <i name="e_wo_entrp">    -67.23107360 </i>
    <i name="e_0_energy">    -67.23107362 </i>
   </energy>
  </scstep>
  <scstep>
   <time name="dav">    1.51    1.51</time>
   <time name="total">    1.62    1.62</time>
   <energy>
    <i name="e_fr_energy">    -67.23047592 </i>
    <i name="e_wo_entrp">    -67.23047586 </i>
    <i name="e_0_energy">    -67.23047589 </i>
   </energy>
  </scstep>
  <scstep>
   <time name="dav">    1.62    1.62</time>
   <time name="total">    1.74    1.74</time>
   <energy>
    <i name="e_fr_energy">    -67.23042880 </i>
    <i name="e_wo_entrp">    -67.23042873 </i>
    <i name="e_0_energy">    -67.23042877 </i>
   </energy>
  </scstep>
  <scstep>
   <time name="dav">    1.57    1.57</time>
   <time name="total">    1.69    1.70</time>
   <energy>
    <i name="e_fr_energy">    -67.23042131 </i>
    <i name="e_wo_entrp">    -67.23042124 </i>
    <i name="e_0_energy">    -67.23042127 </i>
   </energy>
  </scstep>
  <scstep>
   <time name="dav">    1.20    1.21</time>
   <time name="total">    1.32    1.33</time>
   <energy>
    <i name="e_fr_energy">    -67.23043004 </i>
    <i name="e_wo_entrp">    -67.23042997 </i>
    <i name="e_0_energy">    -67.23043001 </i>
   </energy>
  </scstep>
  <scstep>
   <time name="dav">    1.29    1.29</time>
   <time name="total">    1.41    1.41</time>
   <energy>
    <i name="e_fr_energy">    -67.23044223 </i>
    <i name="e_wo_entrp">    -67.23044216 </i>
    <i name="e_0_energy">    -67.23044220 </i>
   </energy>
  </scstep>
  <scstep>
   <time name="dav">    1.34    1.34</time>
   <time name="total">    1.46    1.46</time>
   <energy>
    <i name="e_fr_energy">    -67.23045864 </i>
    <i name="e_wo_entrp">    -67.23045857 </i>
    <i name="e_0_energy">    -67.23045861 </i>
   </energy>
  </scstep>
  <scstep>
   <time name="dav">    1.36    1.36</time>
   <time name="total">    1.47    1.48</time>
   <energy>
    <i name="e_fr_energy">    -67.23046153 </i>
    <i name="e_wo_entrp">    -67.23046146 </i>
    <i name="e_0_energy">    -67.23046150 </i>
   </energy>
  </scstep>
  <scstep>
   <time name="dav">    1.31    1.31</time>
   <time name="total">    1.42    1.42</time>
   <energy>
    <i name="e_fr_energy">    -67.23046599 </i>
    <i name="e_wo_entrp">    -67.23046592 </i>
    <i name="e_0_energy">    -67.23046595 </i>
   </energy>
  </scstep>
  <scstep>
   <time name="dav">    1.28    1.28</time>
   <time name="total">    1.40    1.40</time>
   <energy>
    <i name="e_fr_energy">    -67.23046929 </i>
    <i name="e_wo_entrp">    -67.23046922 </i>
    <i name="e_0_energy">    -67.23046926 </i>
   </energy>
  </scstep>
  <scstep>
   <time name="dav">    1.21    1.21</time>
   <time name="total">    1.32    1.33</time>
   <energy>
    <i name="e_fr_energy">    -67.23047045 </i>
    <i name="e_wo_entrp">    -67.23047038 </i>
    <i name="e_0_energy">    -67.23047042 </i>
   </energy>
  </scstep>
  <scstep>
   <time name="dav">    1.07    1.07</time>
   <time name="total">    1.11    1.11</time>
   <energy>
    <i name="alphaZ">     14.60112278 </i>
    <i name="ewald">   2594.17529427 </i>
    <i name="hartreedc">  -3489.53947546 </i>
    <i name="XCdc">     96.02438532 </i>
    <i name="pawpsdc">   2894.74406452 </i>
    <i name="pawaedc">  -2897.27175167 </i>
    <i name="eentropy">     -0.00000007 </i>
    <i name="bandstr">   -305.16801054 </i>
    <i name="atom">   1025.20389953 </i>
    <i name="e_fr_energy">    -67.23047133 </i>
    <i name="e_wo_entrp">    -67.23047125 </i>
    <i name="e_0_energy">    -67.23047129 </i>
   </energy>
  </scstep>
  <structure>
   <crystal>
    <varray name="basis" >
     <v>       4.48026109       2.58667975      -0.00000000 </v>
     <v>      -4.48026109       2.58667975       0.00000000 </v>
     <v>       0.00000000      -0.00000000      14.98856917 </v>
    </varray>
    <i name="volume">    347.40507531 </i>
    <varray name="rec_basis" >
     <v>       0.11160064       0.19329799      -0.00000000 </v>
     <v>      -0.11160064       0.19329799       0.00000000 </v>
     <v>       0.00000000       0.00000000       0.06671751 </v>
    </varray>
   </crystal>
   <varray name="positions" >
    <v>       0.33333300       0.66666600       0.25000000 </v>
    <v>       0.66666600       0.33333300       0.25000000 </v>
    <v>       0.15876854       0.31753807       0.25000000 </v>
    <v>       0.31753807       0.15876854       0.25000000 </v>
    <v>       0.15876854       0.84123046       0.25000000 </v>
    <v>       0.84123046       0.15876854       0.25000000 </v>
    <v>       0.68246093       0.84123046       0.25000000 </v>
    <v>       0.84123046       0.68246093       0.25000000 </v>
   </varray>
  </structure>
  <varray name="forces" >
   <v>      -0.00000000      -0.00000000      -0.00000000 </v>
   <v>      -0.00000000      -0.00000000      -0.00000000 </v>
   <v>       0.01975365      -0.03421432       0.00000000 </v>
   <v>      -0.01975365      -0.03421432       0.00000000 </v>
   <v>      -0.03950730      -0.00000000      -0.00000000 </v>
   <v>       0.03950730      -0.00000000       0.00000000 </v>
   <v>       0.01975365       0.03421432      -0.00000000 </v>
   <v>      -0.01975365       0.03421432      -0.00000000 </v>
  </varray>
  <varray name="stress" >
   <v>      -0.17016772       0.00000000       0.00000000 </v>
   <v>       0.00000000      -0.17016769       0.00000000 </v>
   <v>       0.00000000      -0.00000000      -0.80809360 </v>
  </varray>
  <energy>
   <i name="e_fr_energy">    -67.23047133 </i>
   <i name="e_wo_entrp">    -67.23047129 </i>
   <i name="e_0_energy">     -0.00000007 </i>
  </energy>
  <time name="totalsc">   21.33   21.41</time>
 </calculation>
 <calculation>
  <scstep>
   <time name="dav">    1.31    1.31</time>
   <time name="total">    1.43    1.43</time>
   <energy>
    <i name="alphaZ">     14.61184684 </i>
    <i name="ewald">   2590.62518315 </i>
    <i name="hartreedc">  -3486.70360630 </i>
    <i name="XCdc">     96.05440742 </i>
    <i name="pawpsdc">   2894.73906836 </i>
    <i name="pawaedc">  -2897.26675244 </i>
    <i name="eentropy">     -0.00000008 </i>
    <i name="bandstr">   -304.49473172 </i>
    <i name="atom">   1025.20389953 </i>
    <i name="e_fr_energy">    -67.23068525 </i>
    <i name="e_wo_entrp">    -67.23068518 </i>
    <i name="e_0_energy">    -67.23068522 </i>
   </energy>
  </scstep>
  <scstep>
   <time name="dav">    1.34    1.34</time>
   <time name="total">    1.45    1.46</time>
   <energy>
    <i name="e_fr_energy">    -67.23061096 </i>
    <i name="e_wo_entrp">    -67.23061088 </i>
    <i name="e_0_energy">    -67.23061092 </i>
   </energy>
  </scstep>
  <scstep>
   <time name="dav">    1.53    1.53</time>
   <time name="total">    1.64    1.65</time>
   <energy>
    <i name="e_fr_energy">    -67.23054149 </i>
    <i name="e_wo_entrp">    -67.23054142 </i>
    <i name="e_0_energy">    -67.23054146 </i>
   </energy>
  </scstep>
  <scstep>
   <time name="dav">    1.65    1.65</time>
   <time name="total">    1.76    1.76</time>
   <energy>
    <i name="e_fr_energy">    -67.23053453 </i>
    <i name="e_wo_entrp">    -67.23053447 </i>
    <i name="e_0_energy">    -67.23053450 </i>
   </energy>
  </scstep>
  <scstep>
   <time name="dav">    1.39    1.39</time>
   <time name="total">    1.44    1.44</time>
   <energy>
    <i name="alphaZ">     14.61184684 </i>
    <i name="ewald">   2590.62518315 </i>
    <i name="hartreedc">  -3486.16740702 </i>
    <i name="XCdc">     96.03589387 </i>
    <i name="pawpsdc">   2896.32130913 </i>
    <i name="pawaedc">  -2898.84941261 </i>
    <i name="eentropy">     -0.00000006 </i>
    <i name="bandstr">   -305.01184674 </i>
    <i name="atom">   1025.20389953 </i>
    <i name="e_fr_energy">    -67.23053393 </i>
    <i name="e_wo_entrp">    -67.23053387 </i>
    <i name="e_0_energy">    -67.23053390 </i>
   </energy>
  </scstep>
  <structure>
   <crystal>
    <varray name="basis" >
     <v>       4.48049790       2.58681647      -0.00000000 </v>
     <v>      -4.48049790       2.58681647       0.00000000 </v>
     <v>       0.00000000      -0.00000000      14.97598546 </v>
    </varray>
    <i name="volume">    347.15010470 </i>
    <varray name="rec_basis" >
     <v>       0.11159474       0.19328778       0.00000000 </v>
     <v>      -0.11159474       0.19328778       0.00000000 </v>
     <v>       0.00000000       0.00000000       0.06677357 </v>
    </varray>
   </crystal>
   <varray name="positions" >
    <v>       0.33333300       0.66666600       0.25000000 </v>
    <v>       0.66666600       0.33333300       0.25000000 </v>
    <v>       0.15859958       0.31720016       0.25000000 </v>
    <v>       0.31720016       0.15859958       0.25000000 </v>
    <v>       0.15859958       0.84139942       0.25000000 </v>
    <v>       0.84139942       0.15859958       0.25000000 </v>
    <v>       0.68279884       0.84139942       0.25000000 </v>
    <v>       0.84139942       0.68279884       0.25000000 </v>
   </varray>
  </structure>
  <varray name="forces" >
   <v>       0.00000000      -0.00000000       0.00000000 </v>
   <v>       0.00000000      -0.00000000       0.00000000 </v>
   <v>      -0.02760581       0.04781466       0.00000000 </v>
   <v>       0.02760581       0.04781466       0.00000000 </v>
   <v>       0.05521162      -0.00000000      -0.00000000 </v>
   <v>      -0.05521162      -0.00000000      -0.00000000 </v>
   <v>      -0.02760581      -0.04781466      -0.00000000 </v>
   <v>       0.02760581      -0.04781466      -0.00000000 </v>
  </varray>
  <varray name="stress" >
   <v>       0.14863518       0.00000000       0.00000000 </v>
   <v>       0.00000000       0.14863515       0.00000000 </v>
   <v>       0.00000000       0.00000000      -0.83375917 </v>
  </varray>
  <energy>
   <i name="e_fr_energy">    -67.23053393 </i>
   <i name="e_wo_entrp">    -67.23053390 </i>
   <i name="e_0_energy">     -0.00000006 </i>
  </energy>
  <time name="totalsc">    9.80    9.88</time>
 </calculation>
 <calculation>
  <scstep>
   <time name="dav">    1.35    1.35</time>
   <time name="total">    1.47    1.47</time>
   <energy>
    <i name="alphaZ">     14.60718249 </i>
    <i name="ewald">   2592.16764953 </i>
    <i name="hartreedc">  -3487.37405268 </i>
    <i name="XCdc">     96.02277492 </i>
    <i name="pawpsdc">   2896.34258704 </i>
    <i name="pawaedc">  -2898.87093560 </i>
    <i name="eentropy">     -0.00000006 </i>
    <i name="bandstr">   -305.32973805 </i>
    <i name="atom">   1025.20389953 </i>
    <i name="e_fr_energy">    -67.23063287 </i>
    <i name="e_wo_entrp">    -67.23063281 </i>
    <i name="e_0_energy">    -67.23063284 </i>
   </energy>
  </scstep>
  <scstep>
   <time name="dav">    1.34    1.34</time>
   <time name="total">    1.46    1.46</time>
   <energy>
    <i name="e_fr_energy">    -67.23062487 </i>
    <i name="e_wo_entrp">    -67.23062481 </i>
    <i name="e_0_energy">    -67.23062484 </i>
   </energy>
  </scstep>
  <scstep>
   <time name="dav">    1.46    1.46</time>
   <time name="total">    1.57    1.58</time>
   <energy>
    <i name="e_fr_energy">    -67.23061853 </i>
    <i name="e_wo_entrp">    -67.23061846 </i>
    <i name="e_0_energy">    -67.23061850 </i>
   </energy>
  </scstep>
  <scstep>
   <time name="dav">    1.57    1.57</time>
   <time name="total">    1.61    1.61</time>
   <energy>
    <i name="alphaZ">     14.60718249 </i>
    <i name="ewald">   2592.16764953 </i>
    <i name="hartreedc">  -3487.53828189 </i>
    <i name="XCdc">     96.02956333 </i>
    <i name="pawpsdc">   2895.82719740 </i>
    <i name="pawaedc">  -2898.35552613 </i>
    <i name="eentropy">     -0.00000007 </i>
    <i name="bandstr">   -305.17230279 </i>
    <i name="atom">   1025.20389953 </i>
    <i name="e_fr_energy">    -67.23061860 </i>
    <i name="e_wo_entrp">    -67.23061854 </i>
    <i name="e_0_energy">    -67.23061857 </i>
   </energy>
  </scstep>
  <structure>
   <crystal>
    <varray name="basis" >
     <v>       4.48039495       2.58675703      -0.00000000 </v>
     <v>      -4.48039495       2.58675703       0.00000000 </v>
     <v>       0.00000000      -0.00000000      14.98145602 </v>
    </varray>
    <i name="volume">    347.26095626 </i>
    <varray name="rec_basis" >
     <v>       0.11159730       0.19329222       0.00000000 </v>
     <v>      -0.11159730       0.19329222       0.00000000 </v>
     <v>       0.00000000       0.00000000       0.06674919 </v>
    </varray>
   </crystal>
   <varray name="positions" >
    <v>       0.33333300       0.66666600       0.25000000 </v>
    <v>       0.66666600       0.33333300       0.25000000 </v>
    <v>       0.15867303       0.31734706       0.25000000 </v>
    <v>       0.31734706       0.15867303       0.25000000 </v>
    <v>       0.15867303       0.84132597       0.25000000 </v>
    <v>       0.84132597       0.15867303       0.25000000 </v>
    <v>       0.68265194       0.84132597       0.25000000 </v>
    <v>       0.84132597       0.68265194       0.25000000 </v>
   </varray>
  </structure>
  <varray name="forces" >
   <v>       0.00000000       0.00000000      -0.00000000 </v>
   <v>       0.00000000       0.00000000      -0.00000000 </v>
   <v>      -0.00683590       0.01184012       0.00000000 </v>
   <v>       0.00683590       0.01184012      -0.00000000 </v>
   <v>       0.01367179       0.00000000      -0.00000000 </v>
   <v>      -0.01367179       0.00000000      -0.00000000 </v>
   <v>      -0.00683590      -0.01184012      -0.00000000 </v>
   <v>       0.00683590      -0.01184012      -0.00000000 </v>
  </varray>
  <varray name="stress" >
   <v>      -0.00408380       0.00000000       0.00000000 </v>
   <v>       0.00000000      -0.00408380      -0.00000000 </v>
   <v>       0.00000000       0.00000000      -0.73488818 </v>
  </varray>
  <energy>
   <i name="e_fr_energy">    -67.23061860 </i>
   <i name="e_wo_entrp">    -67.23061857 </i>
   <i name="e_0_energy">     -0.00000007 </i>
  </energy>
  <time name="totalsc">    8.20    8.25</time>
 </calculation>
 <calculation>
  <scstep>
   <time name="dav">    1.65    1.65</time>
   <time name="total">    1.76    1.76</time>
   <energy>
    <i name="alphaZ">     14.62005522 </i>
    <i name="ewald">   2588.12184860 </i>
    <i name="hartreedc">  -3484.43175585 </i>
    <i name="XCdc">     96.05647341 </i>
    <i name="pawpsdc">   2895.73943879 </i>
    <i name="pawaedc">  -2898.26765762 </i>
    <i name="eentropy">     -0.00000010 </i>
    <i name="bandstr">   -304.27329301 </i>
    <i name="atom">   1025.20389953 </i>
    <i name="e_fr_energy">    -67.23099103 </i>
    <i name="e_wo_entrp">    -67.23099092 </i>
    <i name="e_0_energy">    -67.23099097 </i>
   </energy>
  </scstep>
  <scstep>
   <time name="dav">    1.38    1.38</time>
   <time name="total">    1.49    1.49</time>
   <energy>
    <i name="e_fr_energy">    -67.23083926 </i>
    <i name="e_wo_entrp">    -67.23083918 </i>
    <i name="e_0_energy">    -67.23083922 </i>
   </energy>
  </scstep>
  <scstep>
   <time name="dav">    1.39    1.40</time>
   <time name="total">    1.51    1.51</time>
   <energy>
    <i name="e_fr_energy">    -67.23076400 </i>
    <i name="e_wo_entrp">    -67.23076394 </i>
    <i name="e_0_energy">    -67.23076397 </i>
   </energy>
  </scstep>
  <scstep>
   <time name="dav">    1.66    1.66</time>
   <time name="total">    1.71    1.71</time>
   <energy>
    <i name="alphaZ">     14.62005522 </i>
    <i name="ewald">   2588.12184860 </i>
    <i name="hartreedc">  -3483.77817771 </i>
    <i name="XCdc">     96.03198337 </i>
    <i name="pawpsdc">   2895.52957201 </i>
    <i name="pawaedc">  -2898.05690490 </i>
    <i name="eentropy">     -0.00000007 </i>
    <i name="bandstr">   -304.90303960 </i>
    <i name="atom">   1025.20389953 </i>
    <i name="e_fr_energy">    -67.23076355 </i>
    <i name="e_wo_entrp">    -67.23076348 </i>
    <i name="e_0_energy">    -67.23076351 </i>
   </energy>
  </scstep>
  <structure>
   <crystal>
    <varray name="basis" >
     <v>       4.48044264       2.58678457      -0.00000000 </v>
     <v>      -4.48044264       2.58678457       0.00000000 </v>
     <v>       0.00000000      -0.00000000      14.96794643 </v>
    </varray>
    <i name="volume">    346.95519835 </i>
    <varray name="rec_basis" >
     <v>       0.11159612       0.19329016       0.00000000 </v>
     <v>      -0.11159612       0.19329016       0.00000000 </v>
     <v>       0.00000000       0.00000000       0.06680943 </v>
    </varray>
   </crystal>
   <varray name="positions" >
    <v>       0.33333300       0.66666600       0.25000000 </v>
    <v>       0.66666600       0.33333300       0.25000000 </v>
    <v>       0.15867864       0.31735827       0.25000000 </v>
    <v>       0.31735827       0.15867864       0.25000000 </v>
    <v>       0.15867864       0.84132036       0.25000000 </v>
    <v>       0.84132036       0.15867864       0.25000000 </v>
    <v>       0.68264073       0.84132036       0.25000000 </v>
    <v>       0.84132036       0.68264073       0.25000000 </v>
   </varray>
  </structure>
  <varray name="forces" >
   <v>      -0.00000000       0.00000000       0.00000000 </v>
   <v>      -0.00000000       0.00000000       0.00000000 </v>
   <v>      -0.00527578       0.00913792      -0.00000000 </v>
   <v>       0.00527578       0.00913792      -0.00000000 </v>
   <v>       0.01055156       0.00000000      -0.00000000 </v>
   <v>      -0.01055156       0.00000000       0.00000000 </v>
   <v>      -0.00527578      -0.00913792      -0.00000000 </v>
   <v>       0.00527578      -0.00913792      -0.00000000 </v>
  </varray>
  <varray name="stress" >
   <v>      -0.00018123       0.00000000       0.00000000 </v>
   <v>       0.00000000      -0.00018123      -0.00000000 </v>
   <v>      -0.00000000       0.00000000      -0.97019769 </v>
  </varray>
  <energy>
   <i name="e_fr_energy">    -67.23076355 </i>
   <i name="e_wo_entrp">    -67.23076351 </i>
   <i name="e_0_energy">     -0.00000007 </i>
  </energy>
  <time name="totalsc">    8.54    8.59</time>
 </calculation>
 <calculation>
  <scstep>
   <time name="dav">    1.43    1.43</time>
   <time name="total">    1.54    1.55</time>
   <energy>
    <i name="alphaZ">     14.65881328 </i>
    <i name="ewald">   2575.98551714 </i>
    <i name="hartreedc">  -3474.33810065 </i>
    <i name="XCdc">     96.10944487 </i>
    <i name="pawpsdc">   2895.29943259 </i>
    <i name="pawaedc">  -2897.82723920 </i>
    <i name="eentropy">     -0.00000023 </i>
    <i name="bandstr">   -302.32493848 </i>
    <i name="atom">   1025.20389953 </i>
    <i name="e_fr_energy">    -67.23317114 </i>
    <i name="e_wo_entrp">    -67.23317091 </i>
    <i name="e_0_energy">    -67.23317102 </i>
   </energy>
  </scstep>
  <scstep>
   <time name="dav">    1.39    1.39</time>
   <time name="total">    1.51    1.51</time>
   <energy>
    <i name="e_fr_energy">    -67.23176597 </i>
    <i name="e_wo_entrp">    -67.23176584 </i>
    <i name="e_0_energy">    -67.23176590 </i>
   </energy>
  </scstep>
  <scstep>
   <time name="dav">    1.57    1.57</time>
   <time name="total">    1.68    1.68</time>
   <energy>
    <i name="e_fr_energy">    -67.23108647 </i>
    <i name="e_wo_entrp">    -67.23108640 </i>
    <i name="e_0_energy">    -67.23108643 </i>
   </energy>
  </scstep>
  <scstep>
   <time name="dav">    1.44    1.44</time>
   <time name="total">    1.55    1.56</time>
   <energy>
    <i name="e_fr_energy">    -67.23110437 </i>
    <i name="e_wo_entrp">    -67.23110430 </i>
    <i name="e_0_energy">    -67.23110433 </i>
   </energy>
  </scstep>
  <scstep>
   <time name="dav">    1.38    1.38</time>
   <time name="total">    1.49    1.49</time>
   <energy>
    <i name="e_fr_energy">    -67.23112018 </i>
    <i name="e_wo_entrp">    -67.23112011 </i>
    <i name="e_0_energy">    -67.23112014 </i>
   </energy>
  </scstep>
  <scstep>
   <time name="dav">    1.34    1.34</time>
   <time name="total">    1.45    1.45</time>
   <energy>
    <i name="e_fr_energy">    -67.23118585 </i>
    <i name="e_wo_entrp">    -67.23118578 </i>
    <i name="e_0_energy">    -67.23118581 </i>
   </energy>
  </scstep>
  <scstep>
   <time name="dav">    1.52    1.52</time>
   <time name="total">    1.63    1.63</time>
   <energy>
    <i name="e_fr_energy">    -67.23120212 </i>
    <i name="e_wo_entrp">    -67.23120205 </i>
    <i name="e_0_energy">    -67.23120208 </i>
   </energy>
  </scstep>
  <scstep>
   <time name="dav">    1.40    1.40</time>
   <time name="total">    1.52    1.52</time>
   <energy>
    <i name="e_fr_energy">    -67.23122480 </i>
    <i name="e_wo_entrp">    -67.23122474 </i>
    <i name="e_0_energy">    -67.23122477 </i>
   </energy>
  </scstep>
  <scstep>
   <time name="dav">    1.44    1.44</time>
   <time name="total">    1.55    1.55</time>
   <energy>
    <i name="e_fr_energy">    -67.23122601 </i>
    <i name="e_wo_entrp">    -67.23122595 </i>
    <i name="e_0_energy">    -67.23122598 </i>
   </energy>
  </scstep>
  <scstep>
   <time name="dav">    1.25    1.26</time>
   <time name="total">    1.30    1.30</time>
   <energy>
    <i name="alphaZ">     14.65881328 </i>
    <i name="ewald">   2575.98551714 </i>
    <i name="hartreedc">  -3471.63843954 </i>
    <i name="XCdc">     96.02604175 </i>
    <i name="pawpsdc">   2893.94285955 </i>
    <i name="pawaedc">  -2896.47117327 </i>
    <i name="eentropy">     -0.00000007 </i>
    <i name="bandstr">   -304.93874515 </i>
    <i name="atom">   1025.20389953 </i>
    <i name="e_fr_energy">    -67.23122677 </i>
    <i name="e_wo_entrp">    -67.23122671 </i>
    <i name="e_0_energy">    -67.23122674 </i>
   </energy>
  </scstep>
  <structure>
   <crystal>
    <varray name="basis" >
     <v>       4.48058571       2.58686717      -0.00000000 </v>
     <v>      -4.48058571       2.58686717      -0.00000000 </v>
     <v>       0.00000000      -0.00000000      14.92741768 </v>
    </varray>
    <i name="volume">    346.03784508 </i>
    <varray name="rec_basis" >
     <v>       0.11159255       0.19328399       0.00000000 </v>
     <v>      -0.11159255       0.19328399       0.00000000 </v>
     <v>       0.00000000       0.00000000       0.06699082 </v>
    </varray>
   </crystal>
   <varray name="positions" >
    <v>       0.33333300       0.66666600       0.25000000 </v>
    <v>       0.66666600       0.33333300       0.25000000 </v>
    <v>       0.15869546       0.31739193       0.25000000 </v>
    <v>       0.31739193       0.15869546       0.25000000 </v>
    <v>       0.15869546       0.84130354       0.25000000 </v>
    <v>       0.84130354       0.15869546       0.25000000 </v>
    <v>       0.68260707       0.84130354       0.25000000 </v>
    <v>       0.84130354       0.68260707       0.25000000 </v>
   </varray>
  </structure>
  <varray name="forces" >
   <v>      -0.00000000       0.00000000      -0.00000000 </v>
   <v>       0.00000000       0.00000000      -0.00000000 </v>
   <v>      -0.00034513       0.00059778      -0.00000000 </v>
   <v>       0.00034513       0.00059778      -0.00000000 </v>
   <v>       0.00069026       0.00000000       0.00000000 </v>
   <v>      -0.00069026       0.00000000      -0.00000000 </v>
   <v>      -0.00034513      -0.00059778       0.00000000 </v>
   <v>       0.00034513      -0.00059778       0.00000000 </v>
  </varray>
  <varray name="stress" >
   <v>      -0.13420395       0.00000000      -0.00000000 </v>
   <v>       0.00000000      -0.13420393      -0.00000000 </v>
   <v>       0.00000000       0.00000000      -0.77038451 </v>
  </varray>
  <energy>
   <i name="e_fr_energy">    -67.23122677 </i>
   <i name="e_wo_entrp">    -67.23122674 </i>
   <i name="e_0_energy">     -0.00000007 </i>
  </energy>
  <time name="totalsc">   17.32   17.38</time>
 </calculation>
 <calculation>
  <scstep>
   <time name="dav">    1.49    1.50</time>
   <time name="total">    1.61    1.61</time>
   <energy>
    <i name="alphaZ">     14.73696450 </i>
    <i name="ewald">   2551.71768261 </i>
    <i name="hartreedc">  -3452.91811530 </i>
    <i name="XCdc">     96.18504401 </i>
    <i name="pawpsdc">   2893.96549688 </i>
    <i name="pawaedc">  -2896.49376111 </i>
    <i name="eentropy">     -0.00000073 </i>
    <i name="bandstr">   -299.63703326 </i>
    <i name="atom">   1025.20389953 </i>
    <i name="e_fr_energy">    -67.23982287 </i>
    <i name="e_wo_entrp">    -67.23982214 </i>
    <i name="e_0_energy">    -67.23982250 </i>
   </energy>
  </scstep>
  <scstep>
   <time name="dav">    1.44    1.45</time>
   <time name="total">    1.56    1.56</time>
   <energy>
    <i name="e_fr_energy">    -67.23431314 </i>
    <i name="e_wo_entrp">    -67.23431289 </i>
    <i name="e_0_energy">    -67.23431301 </i>
   </energy>
  </scstep>
  <scstep>
   <time name="dav">    1.59    1.59</time>
   <time name="total">    1.70    1.70</time>
   <energy>
    <i name="e_fr_energy">    -67.23171808 </i>
    <i name="e_wo_entrp">    -67.23171800 </i>
    <i name="e_0_energy">    -67.23171804 </i>
   </energy>
  </scstep>
  <scstep>
   <time name="dav">    1.56    1.56</time>
   <time name="total">    1.67    1.67</time>
   <energy>
    <i name="e_fr_energy">    -67.23174792 </i>
    <i name="e_wo_entrp">    -67.23174784 </i>
    <i name="e_0_energy">    -67.23174788 </i>
   </energy>
  </scstep>
  <scstep>
   <time name="dav">    1.43    1.43</time>
   <time name="total">    1.54    1.55</time>
   <energy>
    <i name="e_fr_energy">    -67.23175492 </i>
    <i name="e_wo_entrp">    -67.23175485 </i>
    <i name="e_0_energy">    -67.23175488 </i>
   </energy>
  </scstep>
  <scstep>
   <time name="dav">    1.37    1.37</time>
   <time name="total">    1.48    1.48</time>
   <energy>
    <i name="e_fr_energy">    -67.23193099 </i>
    <i name="e_wo_entrp">    -67.23193092 </i>
    <i name="e_0_energy">    -67.23193096 </i>
   </energy>
  </scstep>
  <scstep>
   <time name="dav">    1.54    1.55</time>
   <time name="total">    1.66    1.66</time>
   <energy>
    <i name="e_fr_energy">    -67.23196327 </i>
    <i name="e_wo_entrp">    -67.23196320 </i>
    <i name="e_0_energy">    -67.23196323 </i>
   </energy>
  </scstep>
  <scstep>
   <time name="dav">    1.42    1.42</time>
   <time name="total">    1.53    1.53</time>
   <energy>
    <i name="e_fr_energy">    -67.23201708 </i>
    <i name="e_wo_entrp">    -67.23201701 </i>
    <i name="e_0_energy">    -67.23201704 </i>
   </energy>
  </scstep>
  <scstep>
   <time name="dav">    1.50    1.51</time>
   <time name="total">    1.61    1.62</time>
   <energy>
    <i name="e_fr_energy">    -67.23202020 </i>
[...]
   </energy>
  </scstep>
  <scstep>
   <time name="dav">    1.40    1.41</time>
   <time name="total">    1.51    1.52</time>
   <energy>
    <i name="e_fr_energy">    -67.23571159 </i>
    <i name="e_wo_entrp">    -67.23571145 </i>
    <i name="e_0_energy">    -67.23571152 </i>
   </energy>
  </scstep>
  <scstep>
   <time name="dav">    1.55    1.56</time>
   <time name="total">    1.66    1.67</time>
   <energy>
    <i name="e_fr_energy">    -67.23550087 </i>
    <i name="e_wo_entrp">    -67.23550079 </i>
    <i name="e_0_energy">    -67.23550083 </i>
   </energy>
  </scstep>
  <scstep>
   <time name="dav">    1.33    1.33</time>
   <time name="total">    1.44    1.44</time>
   <energy>
    <i name="e_fr_energy">    -67.23636363 </i>
    <i name="e_wo_entrp">    -67.23636355 </i>
    <i name="e_0_energy">    -67.23636359 </i>
   </energy>
  </scstep>
  <scstep>
   <time name="dav">    1.50    1.50</time>
   <time name="total">    1.61    1.61</time>
   <energy>
    <i name="e_fr_energy">    -67.23656200 </i>
    <i name="e_wo_entrp">    -67.23656192 </i>
    <i name="e_0_energy">    -67.23656196 </i>
   </energy>
  </scstep>
  <scstep>
   <time name="dav">    1.38    1.38</time>
   <time name="total">    1.49    1.49</time>
   <energy>
    <i name="e_fr_energy">    -67.23662502 </i>
    <i name="e_wo_entrp">    -67.23662496 </i>
    <i name="e_0_energy">    -67.23662499 </i>
   </energy>
  </scstep>
  <scstep>
   <time name="dav">    1.57    1.57</time>
   <time name="total">    1.68    1.68</time>
   <energy>
    <i name="e_fr_energy">    -67.23658812 </i>
    <i name="e_wo_entrp">    -67.23658805 </i>
    <i name="e_0_energy">    -67.23658808 </i>
   </energy>
  </scstep>
  <scstep>
   <time name="dav">    1.39    1.39</time>
   <time name="total">    1.51    1.51</time>
   <energy>
    <i name="e_fr_energy">    -67.23659250 </i>
    <i name="e_wo_entrp">    -67.23659243 </i>
    <i name="e_0_energy">    -67.23659246 </i>
   </energy>
  </scstep>
  <scstep>
   <time name="dav">    1.47    1.47</time>
   <time name="total">    1.58    1.58</time>
   <energy>
    <i name="e_fr_energy">    -67.23660604 </i>
    <i name="e_wo_entrp">    -67.23660597 </i>
    <i name="e_0_energy">    -67.23660601 </i>
   </energy>
  </scstep>
  <scstep>
   <time name="dav">    1.34    1.34</time>
   <time name="total">    1.45    1.46</time>
   <energy>
    <i name="e_fr_energy">    -67.23662695 </i>
    <i name="e_wo_entrp">    -67.23662689 </i>
    <i name="e_0_energy">    -67.23662692 </i>
   </energy>
  </scstep>
  <scstep>
   <time name="dav">    1.16    1.16</time>
   <time name="total">    1.27    1.27</time>
   <energy>
    <i name="e_fr_energy">    -67.23663000 </i>
    <i name="e_wo_entrp">    -67.23662993 </i>
    <i name="e_0_energy">    -67.23662996 </i>
   </energy>
  </scstep>
  <scstep>
   <time name="dav">    1.09    1.09</time>
   <time name="total">    1.14    1.14</time>
   <energy>
    <i name="alphaZ">     16.00393893 </i>
    <i name="ewald">   2223.23696119 </i>
    <i name="hartreedc">  -3125.04666662 </i>
    <i name="XCdc">     96.10520312 </i>
    <i name="pawpsdc">   2894.16097748 </i>
    <i name="pawaedc">  -2896.70142533 </i>
    <i name="eentropy">     -0.00000007 </i>
    <i name="bandstr">   -300.19951908 </i>
    <i name="atom">   1025.20389953 </i>
    <i name="e_fr_energy">    -67.23663085 </i>
    <i name="e_wo_entrp">    -67.23663079 </i>
    <i name="e_0_energy">    -67.23663082 </i>
   </energy>
  </scstep>
  <structure>
   <crystal>
    <varray name="basis" >
     <v>       4.47622171       2.58434761      -0.00000000 </v>
     <v>      -4.47622171       2.58434761      -0.00000000 </v>
     <v>       0.00000000      -0.00000000      13.69944622 </v>
    </varray>
    <i name="volume">    316.95348142 </i>
    <varray name="rec_basis" >
     <v>       0.11170135       0.19347243      -0.00000000 </v>
     <v>      -0.11170135       0.19347243       0.00000000 </v>
     <v>      -0.00000000       0.00000000       0.07299565 </v>
    </varray>
   </crystal>
   <varray name="positions" >
    <v>       0.33333300       0.66666600       0.25000000 </v>
    <v>       0.66666600       0.33333300       0.25000000 </v>
    <v>       0.15848415       0.31696931       0.25000000 </v>
    <v>       0.31696931       0.15848415       0.25000000 </v>
    <v>       0.15848415       0.84151485       0.25000000 </v>
    <v>       0.84151485       0.15848415       0.25000000 </v>
    <v>       0.68302969       0.84151485       0.25000000 </v>
    <v>       0.84151485       0.68302969       0.25000000 </v>
   </varray>
  </structure>
  <varray name="forces" >
   <v>      -0.00000000       0.00000000      -0.00000000 </v>
   <v>      -0.00000000       0.00000000      -0.00000000 </v>
   <v>      -0.07072808       0.12250462      -0.00000000 </v>
   <v>       0.07072808       0.12250462      -0.00000000 </v>
   <v>       0.14145616       0.00000000       0.00000000 </v>
   <v>      -0.14145616       0.00000000      -0.00000000 </v>
   <v>      -0.07072808      -0.12250462       0.00000000 </v>
   <v>       0.07072808      -0.12250462       0.00000000 </v>
  </varray>
  <varray name="stress" >
   <v>       3.09422519       0.00000000       0.00000000 </v>
   <v>       0.00000000       3.09422471      -0.00000000 </v>
   <v>       0.00000000       0.00000000      -0.21711151 </v>
  </varray>
  <energy>
   <i name="e_fr_energy">    -67.23663085 </i>
   <i name="e_wo_entrp">    -67.23663082 </i>
   <i name="e_0_energy">     -0.00000007 </i>
  </energy>
  <time name="totalsc">   23.31   23.43</time>
 </calculation>
 <calculation>
  <scstep>
   <time name="dav">    1.48    1.48</time>
   <time name="total">    1.60    1.60</time>
   <energy>
    <i name="alphaZ">     15.75763321 </i>
    <i name="ewald">   2279.31715122 </i>
    <i name="hartreedc">  -3166.39502951 </i>
    <i name="XCdc">     95.63003945 </i>
    <i name="pawpsdc">   2894.19078571 </i>
    <i name="pawaedc">  -2896.73119533 </i>
    <i name="eentropy">     -0.00000000 </i>
    <i name="bandstr">   -314.26436288 </i>
    <i name="atom">   1025.20389953 </i>
    <i name="e_fr_energy">    -67.29107860 </i>
    <i name="e_wo_entrp">    -67.29107860 </i>
    <i name="e_0_energy">    -67.29107860 </i>
   </energy>
  </scstep>
  <scstep>
   <time name="dav">    1.47    1.47</time>
   <time name="total">    1.58    1.59</time>
   <energy>
    <i name="e_fr_energy">    -67.25441328 </i>
    <i name="e_wo_entrp">    -67.25441328 </i>
    <i name="e_0_energy">    -67.25441328 </i>
   </energy>
  </scstep>
  <scstep>
   <time name="dav">    1.59    1.60</time>
   <time name="total">    1.71    1.71</time>
   <energy>
    <i name="e_fr_energy">    -67.23762456 </i>
    <i name="e_wo_entrp">    -67.23762450 </i>
    <i name="e_0_energy">    -67.23762453 </i>
   </energy>
  </scstep>
  <scstep>
   <time name="dav">    1.35    1.36</time>
   <time name="total">    1.47    1.47</time>
   <energy>
    <i name="e_fr_energy">    -67.23713147 </i>
    <i name="e_wo_entrp">    -67.23713142 </i>
    <i name="e_0_energy">    -67.23713144 </i>
   </energy>
  </scstep>
  <scstep>
   <time name="dav">    1.36    1.37</time>
   <time name="total">    1.48    1.49</time>
   <energy>
    <i name="e_fr_energy">    -67.23663923 </i>
    <i name="e_wo_entrp">    -67.23663917 </i>
    <i name="e_0_energy">    -67.23663920 </i>
   </energy>
  </scstep>
  <scstep>
   <time name="dav">    1.38    1.38</time>
   <time name="total">    1.50    1.50</time>
   <energy>
    <i name="e_fr_energy">    -67.23663400 </i>
    <i name="e_wo_entrp">    -67.23663394 </i>
    <i name="e_0_energy">    -67.23663397 </i>
   </energy>
  </scstep>
  <scstep>
   <time name="dav">    1.43    1.43</time>
   <time name="total">    1.55    1.55</time>
   <energy>
    <i name="e_fr_energy">    -67.23669213 </i>
    <i name="e_wo_entrp">    -67.23669206 </i>
    <i name="e_0_energy">    -67.23669209 </i>
   </energy>
  </scstep>
  <scstep>
   <time name="dav">    1.40    1.41</time>
   <time name="total">    1.52    1.52</time>
   <energy>
    <i name="e_fr_energy">    -67.23686990 </i>
    <i name="e_wo_entrp">    -67.23686983 </i>
    <i name="e_0_energy">    -67.23686987 </i>
   </energy>
  </scstep>
  <scstep>
   <time name="dav">    1.57    1.57</time>
   <time name="total">    1.68    1.69</time>
   <energy>
    <i name="e_fr_energy">    -67.23692627 </i>
    <i name="e_wo_entrp">    -67.23692620 </i>
    <i name="e_0_energy">    -67.23692624 </i>
   </energy>
  </scstep>
  <scstep>
   <time name="dav">    1.49    1.49</time>
   <time name="total">    1.61    1.61</time>
   <energy>
    <i name="e_fr_energy">    -67.23705601 </i>
    <i name="e_wo_entrp">    -67.23705594 </i>
    <i name="e_0_energy">    -67.23705597 </i>
   </energy>
  </scstep>
  <scstep>
   <time name="dav">    1.51    1.52</time>
   <time name="total">    1.63    1.63</time>
   <energy>
    <i name="e_fr_energy">    -67.23709753 </i>
    <i name="e_wo_entrp">    -67.23709746 </i>
    <i name="e_0_energy">    -67.23709749 </i>
   </energy>
  </scstep>
  <scstep>
   <time name="dav">    1.26    1.27</time>
   <time name="total">    1.38    1.38</time>
   <energy>
    <i name="e_fr_energy">    -67.23712363 </i>
    <i name="e_wo_entrp">    -67.23712356 </i>
    <i name="e_0_energy">    -67.23712360 </i>
   </energy>
  </scstep>
  <scstep>
   <time name="dav">    1.09    1.09</time>
   <time name="total">    1.21    1.21</time>
   <energy>
    <i name="e_fr_energy">    -67.23713058 </i>
    <i name="e_wo_entrp">    -67.23713050 </i>
    <i name="e_0_energy">    -67.23713054 </i>
   </energy>
  </scstep>
  <scstep>
   <time name="dav">    1.12    1.12</time>
   <time name="total">    1.23    1.23</time>
   <energy>
    <i name="e_fr_energy">    -67.23713171 </i>
    <i name="e_wo_entrp">    -67.23713163 </i>
    <i name="e_0_energy">    -67.23713167 </i>
   </energy>
  </scstep>
  <scstep>
   <time name="dav">    1.16    1.16</time>
   <time name="total">    1.20    1.20</time>
   <energy>
    <i name="alphaZ">     15.75763321 </i>
    <i name="ewald">   2279.31715122 </i>
    <i name="hartreedc">  -3180.00984003 </i>
    <i name="XCdc">     96.06634118 </i>
    <i name="pawpsdc">   2888.79401643 </i>
    <i name="pawaedc">  -2891.33074094 </i>
    <i name="eentropy">     -0.00000007 </i>
    <i name="bandstr">   -301.03559243 </i>
    <i name="atom">   1025.20389953 </i>
    <i name="e_fr_energy">    -67.23713190 </i>
    <i name="e_wo_entrp">    -67.23713183 </i>
    <i name="e_0_energy">    -67.23713186 </i>
   </energy>
  </scstep>
  <structure>
   <crystal>
    <varray name="basis" >
     <v>       4.47816906       2.58547192      -0.00000000 </v>
     <v>      -4.47816906       2.58547192      -0.00000000 </v>
     <v>       0.00000000      -0.00000000      13.90148254 </v>
    </varray>
    <i name="volume">    321.90774424 </i>
    <varray name="rec_basis" >
     <v>       0.11165277       0.19338829      -0.00000000 </v>
     <v>      -0.11165277       0.19338829       0.00000000 </v>
     <v>      -0.00000000       0.00000000       0.07193477 </v>
    </varray>
   </crystal>
   <varray name="positions" >
    <v>       0.33333300       0.66666600       0.25000000 </v>
    <v>       0.66666600       0.33333300       0.25000000 </v>
    <v>       0.15862095       0.31724291       0.25000000 </v>
    <v>       0.31724291       0.15862095       0.25000000 </v>
    <v>       0.15862095       0.84137805       0.25000000 </v>
    <v>       0.84137805       0.15862095       0.25000000 </v>
    <v>       0.68275609       0.84137805       0.25000000 </v>
    <v>       0.84137805       0.68275609       0.25000000 </v>
   </varray>
  </structure>
  <varray name="forces" >
   <v>       0.00000000      -0.00000000      -0.00000000 </v>
   <v>       0.00000000       0.00000000      -0.00000000 </v>
   <v>      -0.02713436       0.04699809      -0.00000000 </v>
   <v>       0.02713436       0.04699809      -0.00000000 </v>
   <v>       0.05426872      -0.00000000       0.00000000 </v>
   <v>      -0.05426872       0.00000000      -0.00000000 </v>
   <v>      -0.02713436      -0.04699809       0.00000000 </v>
   <v>       0.02713436      -0.04699809       0.00000000 </v>
  </varray>
  <varray name="stress" >
   <v>       1.59755860       0.00000000       0.00000000 </v>
   <v>       0.00000000       1.59755835       0.00000000 </v>
   <v>       0.00000000      -0.00000000      -0.23100155 </v>
  </varray>
  <energy>
   <i name="e_fr_energy">    -67.23713190 </i>
   <i name="e_wo_entrp">    -67.23713186 </i>
   <i name="e_0_energy">     -0.00000007 </i>
  </energy>
  <time name="totalsc">   25.03   25.21</time>
 </calculation>
 <calculation>
  <scstep>
   <time name="dav">    1.49    1.49</time>
   <time name="total">    1.61    1.61</time>
   <energy>
    <i name="alphaZ">     15.83676832 </i>
    <i name="ewald">   2257.44255202 </i>
    <i name="hartreedc">  -3163.41007753 </i>
    <i name="XCdc">     96.21813781 </i>
    <i name="pawpsdc">   2888.78486149 </i>
    <i name="pawaedc">  -2891.32159823 </i>
    <i name="eentropy">     -0.00000065 </i>
    <i name="bandstr">   -295.99900776 </i>
    <i name="atom">   1025.20389953 </i>
    <i name="e_fr_energy">    -67.24446500 </i>
    <i name="e_wo_entrp">    -67.24446435 </i>
    <i name="e_0_energy">    -67.24446467 </i>
   </energy>
  </scstep>
  <scstep>
   <time name="dav">    1.40    1.41</time>
   <time name="total">    1.52    1.52</time>
   <energy>
    <i name="e_fr_energy">    -67.23948135 </i>
    <i name="e_wo_entrp">    -67.23948112 </i>
    <i name="e_0_energy">    -67.23948123 </i>
   </energy>
  </scstep>
  <scstep>
   <time name="dav">    1.61    1.61</time>
   <time name="total">    1.72    1.72</time>
   <energy>
    <i name="e_fr_energy">    -67.23710036 </i>
    <i name="e_wo_entrp">    -67.23710029 </i>
    <i name="e_0_energy">    -67.23710032 </i>
   </energy>
  </scstep>
  <scstep>
   <time name="dav">    1.35    1.36</time>
   <time name="total">    1.46    1.47</time>
   <energy>
    <i name="e_fr_energy">    -67.23714006 </i>
    <i name="e_wo_entrp">    -67.23713998 </i>
    <i name="e_0_energy">    -67.23714002 </i>
   </energy>
  </scstep>
  <scstep>
   <time name="dav">    1.42    1.42</time>
   <time name="total">    1.53    1.53</time>
   <energy>
    <i name="e_fr_energy">    -67.23715079 </i>
    <i name="e_wo_entrp">    -67.23715072 </i>
    <i name="e_0_energy">    -67.23715076 </i>
   </energy>
  </scstep>
  <scstep>
   <time name="dav">    1.37    1.37</time>
   <time name="total">    1.48    1.48</time>
   <energy>
    <i name="e_fr_energy">    -67.23730833 </i>
    <i name="e_wo_entrp">    -67.23730826 </i>
    <i name="e_0_energy">    -67.23730829 </i>
   </energy>
  </scstep>
  <scstep>
   <time name="dav">    1.49    1.50</time>
   <time name="total">    1.60    1.61</time>
   <energy>
    <i name="e_fr_energy">    -67.23734310 </i>
    <i name="e_wo_entrp">    -67.23734303 </i>
    <i name="e_0_energy">    -67.23734307 </i>
   </energy>
  </scstep>
  <scstep>
   <time name="dav">    1.40    1.40</time>
   <time name="total">    1.51    1.52</time>
   <energy>
    <i name="e_fr_energy">    -67.23738741 </i>
    <i name="e_wo_entrp">    -67.23738734 </i>
    <i name="e_0_energy">    -67.23738738 </i>
   </energy>
  </scstep>
  <scstep>
   <time name="dav">    1.37    1.37</time>
   <time name="total">    1.48    1.49</time>
   <energy>
    <i name="e_fr_energy">    -67.23738958 </i>
    <i name="e_wo_entrp">    -67.23738951 </i>
    <i name="e_0_energy">    -67.23738955 </i>
   </energy>
  </scstep>
  <scstep>
   <time name="dav">    1.45    1.45</time>
   <time name="total">    1.56    1.57</time>
   <energy>
    <i name="e_fr_energy">    -67.23739175 </i>
    <i name="e_wo_entrp">    -67.23739168 </i>
    <i name="e_0_energy">    -67.23739171 </i>
   </energy>
  </scstep>
  <scstep>
   <time name="dav">    1.25    1.25</time>
   <time name="total">    1.36    1.36</time>
   <energy>
    <i name="e_fr_energy">    -67.23739410 </i>
    <i name="e_wo_entrp">    -67.23739403 </i>
    <i name="e_0_energy">    -67.23739406 </i>
   </energy>
  </scstep>
  <scstep>
   <time name="dav">    1.27    1.27</time>
   <time name="total">    1.31    1.32</time>
   <energy>
    <i name="alphaZ">     15.83676832 </i>
    <i name="ewald">   2257.44255202 </i>
    <i name="hartreedc">  -3158.50715471 </i>
    <i name="XCdc">     96.06039230 </i>
    <i name="pawpsdc">   2886.68077821 </i>
    <i name="pawaedc">  -2889.21706315 </i>
    <i name="eentropy">     -0.00000007 </i>
    <i name="bandstr">   -300.73756718 </i>
    <i name="atom">   1025.20389953 </i>
    <i name="e_fr_energy">    -67.23739473 </i>
    <i name="e_wo_entrp">    -67.23739466 </i>
    <i name="e_0_energy">    -67.23739469 </i>
   </energy>
  </scstep>
  <structure>
   <crystal>
    <varray name="basis" >
     <v>       4.47865009       2.58574964      -0.00000000 </v>
     <v>      -4.47865009       2.58574964      -0.00000000 </v>
     <v>       0.00000000      -0.00000000      13.82904682 </v>
    </varray>
    <i name="volume">    320.29919601 </i>
    <varray name="rec_basis" >
     <v>       0.11164078       0.19336752      -0.00000000 </v>
     <v>      -0.11164078       0.19336752       0.00000000 </v>
     <v>      -0.00000000       0.00000000       0.07231156 </v>
    </varray>
   </crystal>
   <varray name="positions" >
    <v>       0.33333300       0.66666600       0.25000000 </v>
    <v>       0.66666600       0.33333300       0.25000000 </v>
    <v>       0.15861103       0.31722305       0.25000000 </v>
    <v>       0.31722305       0.15861103       0.25000000 </v>
    <v>       0.15861103       0.84138797       0.25000000 </v>
    <v>       0.84138797       0.15861103       0.25000000 </v>
    <v>       0.68277595       0.84138797       0.25000000 </v>
    <v>       0.84138797       0.68277595       0.25000000 </v>
   </varray>
  </structure>
  <varray name="forces" >
   <v>      -0.00000000      -0.00000000       0.00000000 </v>
   <v>       0.00000000      -0.00000000       0.00000000 </v>
   <v>      -0.02890402       0.05006322      -0.00000000 </v>
   <v>       0.02890402       0.05006322       0.00000000 </v>
   <v>       0.05780803      -0.00000000       0.00000000 </v>
   <v>      -0.05780803      -0.00000000       0.00000000 </v>
   <v>      -0.02890402      -0.05006322       0.00000000 </v>
   <v>       0.02890402      -0.05006322       0.00000000 </v>
  </varray>
  <varray name="stress" >
   <v>       1.38006253       0.00000000       0.00000000 </v>
   <v>       0.00000000       1.38006232      -0.00000000 </v>
   <v>       0.00000000       0.00000000      -0.22482180 </v>
  </varray>
  <energy>
   <i name="e_fr_energy">    -67.23739473 </i>
   <i name="e_wo_entrp">    -67.23739469 </i>
   <i name="e_0_energy">     -0.00000007 </i>
  </energy>
  <time name="totalsc">   20.22   20.33</time>
 </calculation>
 <calculation>
  <scstep>
   <time name="dav">    1.45    1.46</time>
   <time name="total">    1.57    1.57</time>
   <energy>
    <i name="alphaZ">     16.07923381 </i>
    <i name="ewald">   2191.87496012 </i>
    <i name="hartreedc">  -3108.83496142 </i>
    <i name="XCdc">     96.52133484 </i>
    <i name="pawpsdc">   2886.74608480 </i>
    <i name="pawaedc">  -2889.28233142 </i>
    <i name="eentropy">     -0.00002562 </i>
    <i name="bandstr">   -285.61075885 </i>
    <i name="atom">   1025.20389953 </i>
    <i name="e_fr_energy">    -67.30256421 </i>
    <i name="e_wo_entrp">    -67.30253860 </i>
    <i name="e_0_energy">    -67.30255140 </i>
   </energy>
  </scstep>
  <scstep>
   <time name="dav">    1.37    1.37</time>
   <time name="total">    1.48    1.49</time>
   <energy>
    <i name="e_fr_energy">    -67.25747125 </i>
    <i name="e_wo_entrp">    -67.25746930 </i>
    <i name="e_0_energy">    -67.25747027 </i>
   </energy>
  </scstep>
  <scstep>
