 running on   12 total cores
 distrk:  each k-point on   12 cores,    1 groups
 distr:  one band on    1 cores,   12 groups
 using from now: INCAR     
 vasp.5.4.4.18Apr17-6-g9f103f2a35 (build Mar 30 2023 15:39:25) complex          
  
 POSCAR found type information on POSCAR  B  C 
 POSCAR found :  2 types and       8 ions
 scaLAPACK will be used

 ----------------------------------------------------------------------------- 
|                                                                             |
|           W    W    AA    RRRRR   N    N  II  N    N   GGGG   !!!           |
|           W    W   A  A   R    R  NN   N  II  NN   N  G    G  !!!           |
|           W    W  A    A  R    R  N N  N  II  N N  N  G       !!!           |
|           W WW W  AAAAAA  RRRRR   N  N N  II  N  N N  G  GGG   !            |
|           WW  WW  A    A  R   R   N   NN  II  N   NN  G    G                |
|           W    W  A    A  R    R  N    N  II  N    N   GGGG   !!!           |
|                                                                             |
|      For optimal performance we recommend to set                            |
|        NCORE= 4 - approx SQRT( number of cores)                             |
|      NCORE specifies how many cores store one orbital (NPAR=cpu/NCORE).     |
|      This setting can  greatly improve the performance of VASP for DFT.     |
|      The default,   NCORE=1            might be grossly inefficient         |
|      on modern multi-core architectures or massively parallel machines.     |
|      Do your own testing !!!!                                               |
|      Unfortunately you need to use the default for GW and RPA calculations. |
|      (for HF NCORE is supported but not extensively tested yet)             |
|                                                                             |
 ----------------------------------------------------------------------------- 

 LDA part: xc-table for Pade appr. of Perdew
 POSCAR, INCAR and KPOINTS ok, starting setup
 FFT: planning ...
 WAVECAR not read
 entering main loop
       N       E                     dE             d eps       ncg     rms          rms(c)
DAV:   1     0.213966852723E+03    0.21397E+03   -0.10525E+04   912   0.827E+02
DAV:   2    -0.410803504416E+02   -0.25505E+03   -0.23925E+03  1344   0.197E+02
DAV:   3    -0.714628743221E+02   -0.30383E+02   -0.30136E+02  1236   0.820E+01
DAV:   4    -0.721165878051E+02   -0.65371E+00   -0.65228E+00  1236   0.149E+01
DAV:   5    -0.721383369656E+02   -0.21749E-01   -0.21696E-01  1272   0.244E+00    0.128E+01
DAV:   6    -0.680760434092E+02    0.40623E+01   -0.34362E+00  1200   0.851E+00    0.735E+00
DAV:   7    -0.663482405406E+02    0.17278E+01   -0.48412E+00  1344   0.995E+00    0.165E+00
DAV:   8    -0.663116371316E+02    0.36603E-01   -0.13547E-01  1344   0.180E+00    0.243E-01
DAV:   9    -0.663020303716E+02    0.96068E-02   -0.65455E-03  1176   0.389E-01    0.163E-01
DAV:  10    -0.662935936664E+02    0.84367E-02   -0.95665E-03  1068   0.334E-01    0.757E-02
DAV:  11    -0.662918615700E+02    0.17321E-02   -0.31828E-03   996   0.219E-01    0.578E-02
DAV:  12    -0.662922083893E+02   -0.34682E-03   -0.60709E-04   936   0.967E-02    0.330E-02
DAV:  13    -0.662941819799E+02   -0.19736E-02   -0.23512E-04  1128   0.628E-02    0.212E-02
DAV:  14    -0.662966582099E+02   -0.24762E-02   -0.47462E-04   984   0.670E-02    0.174E-02
DAV:  15    -0.662972376083E+02   -0.57940E-03   -0.61684E-05  1104   0.304E-02    0.935E-03
DAV:  16    -0.662975306277E+02   -0.29302E-03   -0.25423E-05   948   0.185E-02    0.183E-03
DAV:  17    -0.662975558735E+02   -0.25246E-04   -0.11450E-06  1104   0.442E-03    0.109E-03
DAV:  18    -0.662975691078E+02   -0.13234E-04   -0.38630E-07   720   0.231E-03    0.218E-04
DAV:  19    -0.662975698330E+02   -0.72523E-06   -0.29667E-08   900   0.699E-04
   1 F= -.66297570E+02 E0= -.66297502E+02  d E =-.662976E+02
 curvature:   0.00 expect dE= 0.000E+00 dE for cont linesearch  0.000E+00
 trial: gam= 0.00000 g(F)=  0.533E+01 g(S)=  0.293E-01 ort = 0.000E+00 (trialstep = 0.100E+01)
 search vector abs. value=  0.536E+01
 bond charge predicted
       N       E                     dE             d eps       ncg     rms          rms(c)
DAV:   1    -0.638323127204E+02    0.24653E+01   -0.74778E+02   912   0.158E+02    0.102E+01
DAV:   2    -0.632773215461E+02    0.55499E+00   -0.20650E+01  1272   0.307E+01    0.427E+00
DAV:   3    -0.629821496705E+02    0.29517E+00   -0.26966E+00  1068   0.874E+00    0.182E+00
DAV:   4    -0.629681255609E+02    0.14024E-01   -0.15421E-01  1188   0.234E+00    0.853E-01
DAV:   5    -0.629639150993E+02    0.42105E-02   -0.15375E-02  1128   0.689E-01    0.139E-01
DAV:   6    -0.629641110521E+02   -0.19595E-03   -0.93850E-04   948   0.178E-01    0.638E-02
DAV:   7    -0.629642405684E+02   -0.12952E-03   -0.18162E-04   936   0.859E-02    0.133E-02
DAV:   8    -0.629643264561E+02   -0.85888E-04   -0.25493E-05  1056   0.254E-02    0.919E-03
DAV:   9    -0.629644920746E+02   -0.16562E-03   -0.63639E-05   936   0.284E-02    0.699E-03
DAV:  10    -0.629645457316E+02   -0.53657E-04   -0.10151E-05  1080   0.111E-02    0.335E-03
DAV:  11    -0.629645806081E+02   -0.34876E-04   -0.38094E-06  1104   0.824E-03    0.251E-03
DAV:  12    -0.629646456824E+02   -0.65074E-04   -0.33134E-06  1020   0.704E-03    0.132E-03
DAV:  13    -0.629646580958E+02   -0.12413E-04   -0.36928E-07   852   0.270E-03    0.675E-04
DAV:  14    -0.629646708128E+02   -0.12717E-04   -0.64009E-07   888   0.245E-03    0.361E-04
DAV:  15    -0.629646722484E+02   -0.14356E-05   -0.49561E-08   732   0.105E-03    0.251E-04
DAV:  16    -0.629646727077E+02   -0.45930E-06   -0.17133E-08   720   0.540E-04
   2 F= -.62964673E+02 E0= -.62964673E+02  d E =0.333290E+01
 trial-energy change:    3.332897  1 .order    4.358666   -5.355612   14.072944
 step:   0.3475(harm=  0.2757)  dis= 0.07191  next Energy=   -67.271101 (dE=-0.974E+00)
 bond charge predicted
       N       E                     dE             d eps       ncg     rms          rms(c)
DAV:   1    -0.677641089092E+02   -0.47994E+01   -0.34732E+02   912   0.114E+02    0.503E+00
DAV:   2    -0.673089401125E+02    0.45517E+00   -0.73279E+00  1236   0.166E+01    0.326E+00
DAV:   3    -0.672313644019E+02    0.77576E-01   -0.95439E-01  1092   0.566E+00    0.179E+00
DAV:   4    -0.672288197124E+02    0.25447E-02   -0.15295E-01  1188   0.183E+00    0.633E-01
DAV:   5    -0.672258298487E+02    0.29899E-02   -0.28703E-02  1152   0.101E+00    0.138E-01
DAV:   6    -0.672258262885E+02    0.35603E-05   -0.38846E-03  1152   0.372E-01    0.736E-02
DAV:   7    -0.672259805420E+02   -0.15425E-03   -0.49069E-04  1188   0.119E-01    0.348E-02
DAV:   8    -0.672260398729E+02   -0.59331E-04   -0.25423E-04  1116   0.771E-02    0.147E-02
DAV:   9    -0.672261774002E+02   -0.13753E-03   -0.54083E-05   996   0.321E-02    0.962E-03
DAV:  10    -0.672262089425E+02   -0.31542E-04   -0.11997E-05  1092   0.135E-02    0.710E-03
DAV:  11    -0.672262146480E+02   -0.57055E-05   -0.10272E-05  1032   0.100E-02    0.231E-03
DAV:  12    -0.672262132882E+02    0.13598E-05   -0.64795E-07  1044   0.297E-03    0.169E-03
DAV:  13    -0.672262139635E+02   -0.67528E-06   -0.20443E-07   888   0.202E-03
   3 F= -.67226214E+02 E0= -.67226214E+02  d E =-.928644E+00
 curvature:  -0.14 expect dE=-0.330E-02 dE for cont linesearch -0.416E-04
 ZBRENT: interpolating
 opt :   0.3449  next Energy=   -67.226266 (dE=-0.929E+00)
 bond charge predicted
       N       E                     dE             d eps       ncg     rms          rms(c)
DAV:   1    -0.672262726366E+02   -0.59348E-04   -0.54651E-03   960   0.444E-01    0.207E-02
DAV:   2    -0.672262652835E+02    0.73531E-05   -0.93090E-05   996   0.624E-02    0.107E-02
DAV:   3    -0.672262643699E+02    0.91363E-06   -0.18568E-05  1248   0.242E-02    0.431E-03
DAV:   4    -0.672262645195E+02   -0.14959E-06   -0.27405E-06  1104   0.826E-03
   4 F= -.67226265E+02 E0= -.67226264E+02  d E =-.928695E+00
 curvature:  -0.17 expect dE=-0.394E-02 dE for cont linesearch -0.482E-06
 trial: gam= 0.00354 g(F)=  0.161E-03 g(S)=  0.227E-01 ort = 0.387E-02 (trialstep = 0.869E+00)
 search vector abs. value=  0.229E-01
 bond charge predicted
       N       E                     dE             d eps       ncg     rms          rms(c)
DAV:   1    -0.672280693617E+02   -0.18050E-02   -0.49788E-01  1044   0.457E+00    0.449E-01
DAV:   2    -0.672242996878E+02    0.37697E-02   -0.80203E-03  1008   0.530E-01    0.271E-01
DAV:   3    -0.672224014349E+02    0.18983E-02   -0.47350E-03  1236   0.320E-01    0.522E-02
DAV:   4    -0.672222863642E+02    0.11507E-03   -0.75522E-04  1140   0.136E-01    0.224E-02
DAV:   5    -0.672222839658E+02    0.23984E-05   -0.65261E-05  1104   0.410E-02    0.970E-03
DAV:   6    -0.672223409082E+02   -0.56942E-04   -0.60981E-06   996   0.106E-02    0.406E-03
DAV:   7    -0.672223984760E+02   -0.57568E-04   -0.10412E-05  1008   0.112E-02    0.257E-03
DAV:   8    -0.672224359096E+02   -0.37434E-04   -0.82566E-06  1044   0.808E-03    0.117E-03
DAV:   9    -0.672224427609E+02   -0.68513E-05   -0.14123E-06  1224   0.402E-03    0.725E-04
DAV:  10    -0.672224429130E+02   -0.15213E-06   -0.65762E-07   960   0.255E-03
   5 F= -.67222443E+02 E0= -.67222443E+02  d E =0.382161E-02
 trial-energy change:    0.003822  1 .order    0.003658   -0.019868    0.027185
 step:   0.3625(harm=  0.3669)  dis= 0.00068  next Energy=   -67.230397 (dE=-0.413E-02)
 bond charge predicted
       N       E                     dE             d eps       ncg     rms          rms(c)
DAV:   1    -0.672322321674E+02   -0.97894E-02   -0.16949E-01  1092   0.268E+00    0.262E-01
DAV:   2    -0.672309767965E+02    0.12554E-02   -0.27578E-03  1284   0.308E-01    0.158E-01
DAV:   3    -0.672303698540E+02    0.60694E-03   -0.15222E-03  1056   0.184E-01    0.294E-02
DAV:   4    -0.672303242438E+02    0.45610E-04   -0.23740E-04  1248   0.772E-02    0.125E-02
DAV:   5    -0.672303174976E+02    0.67462E-05   -0.20803E-05  1116   0.230E-02    0.562E-03
DAV:   6    -0.672303265006E+02   -0.90030E-05   -0.11231E-06   816   0.525E-03    0.227E-03
DAV:   7    -0.672303386597E+02   -0.12159E-04   -0.22574E-06   924   0.580E-03    0.153E-03
DAV:   8    -0.672303552942E+02   -0.16635E-04   -0.22195E-06   936   0.472E-03    0.739E-04
DAV:   9    -0.672303581405E+02   -0.28463E-05   -0.62767E-08   984   0.122E-03    0.413E-04
DAV:  10    -0.672303635548E+02   -0.54142E-05   -0.26133E-07   888   0.148E-03    0.277E-04
DAV:  11    -0.672303672591E+02   -0.37044E-05   -0.68140E-08   864   0.880E-04    0.148E-04
DAV:  12    -0.672303684448E+02   -0.11857E-05   -0.22844E-08   900   0.438E-04    0.860E-05
DAV:  13    -0.672303700219E+02   -0.15771E-05   -0.43280E-08   684   0.582E-04    0.807E-05
DAV:  14    -0.672303700740E+02   -0.52098E-07   -0.30351E-09   840   0.219E-04
   6 F= -.67230370E+02 E0= -.67230370E+02  d E =-.410555E-02
 curvature:  -0.18 expect dE=-0.122E-03 dE for cont linesearch -0.323E-08
 trial: gam= 0.03586 g(F)=  0.452E-03 g(S)=  0.211E-03 ort = 0.201E-04 (trialstep = 0.768E+00)
 search vector abs. value=  0.693E-03
 bond charge predicted
       N       E                     dE             d eps       ncg     rms          rms(c)
DAV:   1    -0.672305960499E+02   -0.22603E-03   -0.47919E-02   912   0.130E+00    0.611E-02
DAV:   2    -0.672305160235E+02    0.80026E-04   -0.86569E-04   924   0.177E-01    0.391E-02
DAV:   3    -0.672304415421E+02    0.74481E-04   -0.17711E-04  1140   0.706E-02    0.115E-02
DAV:   4    -0.672304339650E+02    0.75770E-05   -0.24204E-05  1164   0.249E-02    0.486E-03
DAV:   5    -0.672304336541E+02    0.31098E-06   -0.33737E-06  1056   0.842E-03
   7 F= -.67230434E+02 E0= -.67230434E+02  d E =-.635801E-04
 trial-energy change:   -0.000064  1 .order   -0.000084   -0.000509    0.000340
 step:   0.4323(harm=  0.4601)  dis= 0.00085  next Energy=   -67.230510 (dE=-0.140E-03)
 bond charge predicted
       N       E                     dE             d eps       ncg     rms          rms(c)
DAV:   1    -0.672305324899E+02   -0.98525E-04   -0.90776E-03   960   0.567E-01    0.265E-02
DAV:   2    -0.672305256327E+02    0.68572E-05   -0.16300E-04   936   0.764E-02    0.169E-02
DAV:   3    -0.672305200416E+02    0.55911E-05   -0.31848E-05  1044   0.300E-02    0.506E-03
DAV:   4    -0.672305204007E+02   -0.35909E-06   -0.43517E-06  1212   0.106E-02
   8 F= -.67230520E+02 E0= -.67230520E+02  d E =-.150327E-03
 curvature:  -0.24 expect dE=-0.511E-04 dE for cont linesearch -0.173E-06
 trial: gam= 0.28936 g(F)=  0.531E-04 g(S)=  0.161E-03 ort = 0.224E-04 (trialstep = 0.701E+00)
 search vector abs. value=  0.285E-03
 bond charge predicted
       N       E                     dE             d eps       ncg     rms          rms(c)
DAV:   1    -0.672309076457E+02   -0.38760E-03   -0.79882E-03  1308   0.476E-01    0.588E-02
DAV:   2    -0.672307474294E+02    0.16022E-03   -0.19180E-04   972   0.707E-02    0.306E-02
DAV:   3    -0.672306679316E+02    0.79498E-04   -0.17499E-04  1020   0.593E-02    0.870E-03
DAV:   4    -0.672306678056E+02    0.12608E-06   -0.65816E-06  1224   0.135E-02
   9 F= -.67230668E+02 E0= -.67230668E+02  d E =-.147405E-03
 ZBRENT: can't locate minimum, use default step
 trial-energy change:   -0.000147  1 .order   -0.000178   -0.000155   -0.000201
 step:   2.8025(harm=  2.8025)  dis= 0.00023  next Energy=   -67.231506 (dE=-0.986E-03)
 bond charge predicted
       N       E                     dE             d eps       ncg     rms          rms(c)
DAV:   1    -0.672331646928E+02   -0.24968E-02   -0.70441E-02  1056   0.142E+00    0.173E-01
DAV:   2    -0.672317018122E+02    0.14629E-02   -0.16381E-03   948   0.213E-01    0.911E-02
DAV:   3    -0.672309966564E+02    0.70516E-03   -0.17293E-03  1164   0.185E-01    0.281E-02
DAV:   4    -0.672310205647E+02   -0.23908E-04   -0.70904E-05   960   0.442E-02    0.136E-02
DAV:   5    -0.672310382172E+02   -0.17652E-04   -0.29718E-05  1032   0.239E-02    0.719E-03
DAV:   6    -0.672311151151E+02   -0.76898E-04   -0.18977E-05   936   0.193E-02    0.752E-03
DAV:   7    -0.672311306527E+02   -0.15538E-04   -0.31210E-06  1164   0.749E-03    0.386E-03
DAV:   8    -0.672311551754E+02   -0.24523E-04   -0.11045E-05   996   0.115E-02    0.352E-03
DAV:   9    -0.672311557880E+02   -0.61264E-06   -0.31377E-07  1020   0.271E-03
  10 F= -.67231156E+02 E0= -.67231156E+02  d E =-.635387E-03
 curvature:  -2.81 expect dE=-0.442E-03 dE for cont linesearch -0.414E-03
 ZBRENT: increasing intervall
 opt :   7.0062  next Energy=   -67.231675 (dE=-0.115E-02)
 bond charge predicted
       N       E                     dE             d eps       ncg     rms          rms(c)
DAV:   1    -0.672400861709E+02   -0.89310E-02   -0.28800E-01  1224   0.287E+00    0.353E-01
DAV:   2    -0.672343218675E+02    0.57643E-02   -0.69237E-03  1032   0.427E-01    0.184E-01
DAV:   3    -0.672316929740E+02    0.26289E-02   -0.64793E-03  1212   0.360E-01    0.534E-02
DAV:   4    -0.672316990772E+02   -0.61032E-05   -0.26773E-04  1128   0.851E-02    0.249E-02
DAV:   5    -0.672317232879E+02   -0.24211E-04   -0.10812E-04  1032   0.458E-02    0.133E-02
DAV:   6    -0.672318870984E+02   -0.16381E-03   -0.47143E-05   984   0.308E-02    0.117E-02
DAV:   7    -0.672319248116E+02   -0.37713E-04   -0.66653E-06  1176   0.104E-02    0.664E-03
DAV:   8    -0.672319764314E+02   -0.51620E-04   -0.25846E-05  1020   0.170E-02    0.446E-03
DAV:   9    -0.672319791761E+02   -0.27447E-05   -0.12732E-06  1212   0.463E-03    0.296E-03
DAV:  10    -0.672319774569E+02    0.17192E-05   -0.26769E-06  1056   0.732E-03    0.258E-03
DAV:  11    -0.672319774286E+02    0.28263E-07   -0.58376E-07   936   0.352E-03
  11 F= -.67231977E+02 E0= -.67231977E+02  d E =-.145703E-02
 curvature:  -3.53 expect dE=-0.125E-02 dE for cont linesearch -0.414E-03
 ZBRENT: increasing intervall
 opt :  15.4136  next Energy=   -67.233331 (dE=-0.281E-02)
 bond charge predicted
       N       E                     dE             d eps       ncg     rms          rms(c)
DAV:   1    -0.672658687409E+02   -0.33891E-01   -0.11682E+00  1068   0.580E+00    0.708E-01
DAV:   2    -0.672428184404E+02    0.23050E-01   -0.26783E-02  1008   0.860E-01    0.371E-01
DAV:   3    -0.672325598896E+02    0.10259E-01   -0.27627E-02  1212   0.741E-01    0.112E-01
DAV:   4    -0.672326059524E+02   -0.46063E-04   -0.11757E-03  1116   0.178E-01    0.526E-02
DAV:   5    -0.672326149535E+02   -0.90011E-05   -0.43867E-04  1044   0.932E-02    0.286E-02
DAV:   6    -0.672330474289E+02   -0.43248E-03   -0.21720E-04  1008   0.699E-02    0.261E-02
DAV:   7    -0.672331240536E+02   -0.76625E-04   -0.33447E-05  1140   0.255E-02    0.134E-02
DAV:   8    -0.672332361808E+02   -0.11213E-03   -0.10902E-04   996   0.378E-02    0.117E-02
DAV:   9    -0.672332354757E+02    0.70506E-06   -0.38920E-06  1200   0.954E-03
  12 F= -.67233235E+02 E0= -.67233235E+02  d E =-.271507E-02
 curvature: -11.54 expect dE=-0.202E-01 dE for cont linesearch -0.301E-03
 ZBRENT: increasing intervall
 opt :  32.2285  next Energy=   -67.233063 (dE=-0.254E-02)
 bond charge predicted
       N       E                     dE             d eps       ncg     rms          rms(c)
DAV:   1    -0.673687621700E+02   -0.13553E+00   -0.48434E+00  1068   0.119E+01    0.145E+00
DAV:   2    -0.672742741451E+02    0.94488E-01   -0.10977E-01   996   0.174E+00    0.755E-01
DAV:   3    -0.672338053355E+02    0.40469E-01   -0.11190E-01  1248   0.150E+00    0.226E-01
DAV:   4    -0.672335407365E+02    0.26460E-03   -0.51476E-03  1116   0.367E-01    0.104E-01
DAV:   5    -0.672331781555E+02    0.36258E-03   -0.17758E-03  1056   0.190E-01    0.581E-02
