 running on   12 total cores
 distrk:  each k-point on   12 cores,    1 groups
 distr:  one band on    1 cores,   12 groups
 using from now: INCAR     
 vasp.5.4.4.18Apr17-6-g9f103f2a35 (build Mar 30 2023 15:39:25) complex          
  
 POSCAR found type information on POSCAR  B  C 
 POSCAR found :  2 types and       8 ions
 scaLAPACK will be used

 ----------------------------------------------------------------------------- 
|                                                                             |
|           W    W    AA    RRRRR   N    N  II  N    N   GGGG   !!!           |
|           W    W   A  A   R    R  NN   N  II  NN   N  G    G  !!!           |
|           W    W  A    A  R    R  N N  N  II  N N  N  G       !!!           |
|           W WW W  AAAAAA  RRRRR   N  N N  II  N  N N  G  GGG   !            |
|           WW  WW  A    A  R   R   N   NN  II  N   NN  G    G                |
|           W    W  A    A  R    R  N    N  II  N    N   GGGG   !!!           |
|                                                                             |
|      For optimal performance we recommend to set                            |
|        NCORE= 4 - approx SQRT( number of cores)                             |
|      NCORE specifies how many cores store one orbital (NPAR=cpu/NCORE).     |
|      This setting can  greatly improve the performance of VASP for DFT.     |
|      The default,   NCORE=1            might be grossly inefficient         |
|      on modern multi-core architectures or massively parallel machines.     |
|      Do your own testing !!!!                                               |
|      Unfortunately you need to use the default for GW and RPA calculations. |
|      (for HF NCORE is supported but not extensively tested yet)             |
|                                                                             |
 ----------------------------------------------------------------------------- 

 LDA part: xc-table for Pade appr. of Perdew
 POSCAR, INCAR and KPOINTS ok, starting setup
 FFT: planning ...
 WAVECAR not read
 entering main loop
       N       E                     dE             d eps       ncg     rms          rms(c)
DAV:   1     0.213979232574E+03    0.21398E+03   -0.10526E+04   912   0.827E+02
DAV:   2    -0.410794246554E+02   -0.25506E+03   -0.23927E+03  1344   0.197E+02
DAV:   3    -0.714630130801E+02   -0.30384E+02   -0.30137E+02  1236   0.820E+01
DAV:   4    -0.721168170571E+02   -0.65380E+00   -0.65237E+00  1236   0.149E+01
DAV:   5    -0.721385735881E+02   -0.21757E-01   -0.21703E-01  1272   0.244E+00    0.128E+01
DAV:   6    -0.680762183172E+02    0.40624E+01   -0.34359E+00  1188   0.851E+00    0.735E+00
DAV:   7    -0.663491383254E+02    0.17271E+01   -0.48389E+00  1344   0.995E+00    0.165E+00
DAV:   8    -0.663126950659E+02    0.36443E-01   -0.13529E-01  1320   0.180E+00    0.243E-01
DAV:   9    -0.663031981184E+02    0.94969E-02   -0.65447E-03  1152   0.389E-01    0.163E-01
DAV:  10    -0.662944590817E+02    0.87390E-02   -0.94387E-03  1080   0.333E-01    0.754E-02
DAV:  11    -0.662923364935E+02    0.21226E-02   -0.32926E-03   996   0.224E-01    0.575E-02
DAV:  12    -0.662926833797E+02   -0.34689E-03   -0.58003E-04   936   0.981E-02    0.329E-02
DAV:  13    -0.662945350568E+02   -0.18517E-02   -0.21394E-04  1116   0.611E-02    0.212E-02
DAV:  14    -0.662970034501E+02   -0.24684E-02   -0.46828E-04   996   0.668E-02    0.170E-02
DAV:  15    -0.662976366215E+02   -0.63317E-03   -0.62637E-05  1104   0.303E-02    0.926E-03
DAV:  16    -0.662979420090E+02   -0.30539E-03   -0.20221E-05   948   0.179E-02    0.192E-03
DAV:  17    -0.662979691751E+02   -0.27166E-04   -0.86288E-07   996   0.422E-03    0.114E-03
DAV:  18    -0.662979824903E+02   -0.13315E-04   -0.32761E-07   744   0.268E-03    0.414E-04
DAV:  19    -0.662979828326E+02   -0.34233E-06   -0.24891E-08   924   0.821E-04
   1 F= -.66297983E+02 E0= -.66297915E+02  d E =-.662980E+02
 curvature:   0.00 expect dE= 0.000E+00 dE for cont linesearch  0.000E+00
 trial: gam= 0.00000 g(F)=  0.533E+01 g(S)=  0.290E-01 ort = 0.000E+00 (trialstep = 0.100E+01)
 search vector abs. value=  0.536E+01
 bond charge predicted
       N       E                     dE             d eps       ncg     rms          rms(c)
DAV:   1    -0.638490699097E+02    0.24489E+01   -0.74777E+02   912   0.158E+02    0.102E+01
DAV:   2    -0.632763976726E+02    0.57267E+00   -0.20567E+01  1320   0.307E+01    0.427E+00
