<?xml version="1.0" encoding="ISO-8859-1"?>
<modeling>
 <generator>
  <i name="program" type="string">vasp </i>
  <i name="version" type="string">5.4.4.18Apr17-6-g9f103f2a35  </i>
  <i name="subversion" type="string">(build Mar 30 2023 15:39:25) complex            parallel </i>
  <i name="platform" type="string">LinuxIFC </i>
  <i name="date" type="string">2023 06 14 </i>
  <i name="time" type="string">15:37:17 </i>
 </generator>
 <incar>
  <i type="string" name="SYSTEM"> BC3</i>
  <i type="int" name="ISTART">     0</i>
  <i type="string" name="PREC">accurate</i>
  <i type="string" name="ALGO">  Normal</i>
  <i type="int" name="ICHARG">     2</i>
  <i type="int" name="IBRION">     2</i>
  <i name="EDIFF">      0.00000100</i>
  <i name="EDIFFG">     -0.01000000</i>
  <i type="int" name="NSW">   128</i>
  <i type="int" name="ISIF">     3</i>
  <i name="ENCUT">    450.00000000</i>
  <i type="int" name="ISMEAR">     0</i>
  <i name="SIGMA">      0.10000000</i>
  <v type="int" name="KPOINT_BSE">    -1     0     0     0</v>
 </incar>
 <structure name="primitive_cell" >
  <crystal>
   <varray name="basis" >
    <v>       4.48142200       2.58735000       0.00000000 </v>
    <v>      -4.48142200       2.58735000       0.00000000 </v>
    <v>       0.00000000       0.00000000      15.00000000 </v>
   </varray>
   <i name="volume">    347.85021635 </i>
   <varray name="rec_basis" >
    <v>       0.11157173       0.19324792       0.00000000 </v>
    <v>      -0.11157173       0.19324792       0.00000000 </v>
    <v>       0.00000000       0.00000000       0.06666667 </v>
   </varray>
  </crystal>
  <varray name="positions" >
   <v>       0.33333300      -0.33333400       0.25000000 </v>
   <v>       0.16666600       0.33333300       0.25000000 </v>
   <v>      -0.33333400      -0.16666700       0.25000000 </v>
   <v>       0.16666600      -0.16666700       0.25000000 </v>
   <v>      -0.16666700       0.16666600       0.25000000 </v>
   <v>       0.33333300       0.16666600       0.25000000 </v>
   <v>      -0.16666700      -0.33333400       0.25000000 </v>
   <v>      -0.33333400       0.33333300       0.25000000 </v>
  </varray>
 </structure>
 <varray name="primitive_index" >
  <v type="int" >        1 </v>
  <v type="int" >        3 </v>
  <v type="int" >        7 </v>
  <v type="int" >        5 </v>
  <v type="int" >        6 </v>
  <v type="int" >        4 </v>
  <v type="int" >        8 </v>
  <v type="int" >        2 </v>
 </varray>
 <kpoints>
  <generation param="Gamma">
   <v type="int" name="divisions">      12       12        1 </v>
   <v name="usershift">      0.00000000       0.00000000       0.00000000 </v>
   <v name="genvec1">      0.08333333       0.00000000       0.00000000 </v>
   <v name="genvec2">      0.00000000       0.08333333       0.00000000 </v>
   <v name="genvec3">      0.00000000       0.00000000       1.00000000 </v>
   <v name="shift">      0.00000000       0.00000000       0.00000000 </v>
  </generation>
  <varray name="kpointlist" >
   <v>       0.00000000       0.00000000       0.00000000 </v>
   <v>       0.08333333       0.00000000       0.00000000 </v>
   <v>       0.16666667      -0.00000000       0.00000000 </v>
   <v>       0.25000000       0.00000000       0.00000000 </v>
   <v>       0.33333333       0.00000000       0.00000000 </v>
   <v>       0.41666667       0.00000000       0.00000000 </v>
   <v>       0.50000000       0.00000000       0.00000000 </v>
   <v>       0.08333333       0.08333333       0.00000000 </v>
   <v>       0.16666667       0.08333333       0.00000000 </v>
   <v>       0.25000000       0.08333333       0.00000000 </v>
   <v>       0.33333333       0.08333333       0.00000000 </v>
   <v>       0.41666667       0.08333333       0.00000000 </v>
   <v>       0.16666667       0.16666667       0.00000000 </v>
   <v>       0.25000000       0.16666667       0.00000000 </v>
   <v>       0.33333333       0.16666667       0.00000000 </v>
   <v>       0.41666667       0.16666667       0.00000000 </v>
   <v>       0.25000000       0.25000000       0.00000000 </v>
   <v>       0.33333333       0.25000000       0.00000000 </v>
   <v>       0.33333333       0.33333333       0.00000000 </v>
  </varray>
  <varray name="weights" >
   <v>       0.00694444 </v>
   <v>       0.04166667 </v>
   <v>       0.04166667 </v>
   <v>       0.04166667 </v>
   <v>       0.04166667 </v>
   <v>       0.04166667 </v>
   <v>       0.02083333 </v>
   <v>       0.04166667 </v>
   <v>       0.08333333 </v>
   <v>       0.08333333 </v>
   <v>       0.08333333 </v>
   <v>       0.08333333 </v>
   <v>       0.04166667 </v>
   <v>       0.08333333 </v>
   <v>       0.08333333 </v>
   <v>       0.04166667 </v>
   <v>       0.04166667 </v>
   <v>       0.08333333 </v>
   <v>       0.01388889 </v>
  </varray>
 </kpoints>
 <parameters>
  <separator name="general" >
   <i type="string" name="SYSTEM">BC3</i>
   <i type="logical" name="LCOMPAT"> F  </i>
  </separator>
  <separator name="electronic" >
   <i type="string" name="PREC">accura</i>
   <i name="ENMAX">    450.00000000</i>
   <i name="ENAUG">    644.87300000</i>
   <i name="EDIFF">      0.00000100</i>
   <i type="int" name="IALGO">    38</i>
   <i type="int" name="IWAVPR">    11</i>
   <i type="int" name="NBANDS">    24</i>
   <i name="NELECT">     30.00000000</i>
   <i type="int" name="TURBO">     0</i>
   <i type="int" name="IRESTART">     0</i>
   <i type="int" name="NREBOOT">     0</i>
   <i type="int" name="NMIN">     0</i>
   <i name="EREF">      0.00000000</i>
   <separator name="electronic smearing" >
    <i type="int" name="ISMEAR">     0</i>
    <i name="SIGMA">      0.10000000</i>
    <i name="KSPACING">      0.50000000</i>
    <i type="logical" name="KGAMMA"> T  </i>
   </separator>
   <separator name="electronic projectors" >
    <i type="logical" name="LREAL"> F  </i>
    <v name="ROPT">      0.00000000      0.00000000</v>
    <i type="int" name="LMAXPAW">  -100</i>
    <i type="int" name="LMAXMIX">     2</i>
    <i type="logical" name="NLSPLINE"> F  </i>
   </separator>
   <separator name="electronic startup" >
    <i type="int" name="ISTART">     0</i>
    <i type="int" name="ICHARG">     2</i>
    <i type="int" name="INIWAV">     1</i>
   </separator>
   <separator name="electronic spin" >
    <i type="int" name="ISPIN">     1</i>
    <i type="logical" name="LNONCOLLINEAR"> F  </i>
    <v name="MAGMOM">      1.00000000      1.00000000      1.00000000      1.00000000      1.00000000      1.00000000      1.00000000      1.00000000</v>
    <i name="NUPDOWN">     -1.00000000</i>
    <i type="logical" name="LSORBIT"> F  </i>
    <v name="SAXIS">      0.00000000      0.00000000      1.00000000</v>
    <i type="logical" name="LSPIRAL"> F  </i>
    <v name="QSPIRAL">      0.00000000      0.00000000      0.00000000</v>
    <i type="logical" name="LZEROZ"> F  </i>
   </separator>
   <separator name="electronic exchange-correlation" >
    <i type="logical" name="LASPH"> F  </i>
    <i type="logical" name="LMETAGGA"> F  </i>
   </separator>
   <separator name="electronic convergence" >
    <i type="int" name="NELM">    60</i>
    <i type="int" name="NELMDL">    -5</i>
    <i type="int" name="NELMIN">     2</i>
    <i name="ENINI">    450.00000000</i>
    <separator name="electronic convergence detail" >
     <i type="logical" name="LDIAG"> T  </i>
     <i type="logical" name="LSUBROT"> F  </i>
     <i name="WEIMIN">      0.00100000</i>
     <i name="EBREAK">      0.00000001</i>
     <i name="DEPER">      0.30000000</i>
     <i type="int" name="NRMM">     4</i>
     <i name="TIME">      0.40000000</i>
    </separator>
   </separator>
   <separator name="electronic mixer" >
    <i name="AMIX">      0.40000000</i>
    <i name="BMIX">      1.00000000</i>
    <i name="AMIN">      0.10000000</i>
    <i name="AMIX_MAG">      1.60000000</i>
    <i name="BMIX_MAG">      1.00000000</i>
    <separator name="electronic mixer details" >
     <i type="int" name="IMIX">     4</i>
     <i type="logical" name="MIXFIRST"> F  </i>
     <i type="int" name="MAXMIX">   -45</i>
     <i name="WC">    100.00000000</i>
     <i type="int" name="INIMIX">     1</i>
     <i type="int" name="MIXPRE">     1</i>
     <i type="int" name="MREMOVE">     5</i>
    </separator>
   </separator>
   <separator name="electronic dipolcorrection" >
    <i type="logical" name="LDIPOL"> F  </i>
    <i type="logical" name="LMONO"> F  </i>
    <i type="int" name="IDIPOL">     0</i>
    <i name="EPSILON">      1.00000000</i>
    <v name="DIPOL">   -100.00000000   -100.00000000   -100.00000000</v>
    <i name="EFIELD">      0.00000000</i>
   </separator>
  </separator>
  <separator name="grids" >
   <i type="int" name="NGX">    36</i>
   <i type="int" name="NGY">    36</i>
   <i type="int" name="NGZ">   108</i>
   <i type="int" name="NGXF">    72</i>
   <i type="int" name="NGYF">    72</i>
   <i type="int" name="NGZF">   216</i>
   <i type="logical" name="ADDGRID"> F  </i>
  </separator>
  <separator name="ionic" >
   <i type="int" name="NSW">   128</i>
   <i type="int" name="IBRION">     2</i>
   <i type="int" name="MDALGO">     0</i>
   <i type="int" name="ISIF">     3</i>
   <i name="PSTRESS">      0.00000000</i>
   <i name="EDIFFG">     -0.01000000</i>
   <i type="int" name="NFREE">     1</i>
   <i name="POTIM">      0.50000000</i>
   <i name="SMASS">     -3.00000000</i>
   <i name="SCALEE">      1.00000000</i>
  </separator>
  <separator name="ionic md" >
   <i name="TEBEG">      0.00010000</i>
   <i name="TEEND">      0.00010000</i>
   <i type="int" name="NBLOCK">     1</i>
   <i type="int" name="KBLOCK">   128</i>
   <i type="int" name="NPACO">   256</i>
   <i name="APACO">     16.00000000</i>
  </separator>
  <separator name="symmetry" >
   <i type="int" name="ISYM">     2</i>
   <i name="SYMPREC">      0.00001000</i>
  </separator>
  <separator name="dos" >
   <i type="int" name="LORBIT">     0</i>
   <v name="RWIGS">     -1.00000000     -1.00000000</v>
   <i type="int" name="NEDOS">   301</i>
   <i name="EMIN">     10.00000000</i>
   <i name="EMAX">    -10.00000000</i>
   <i name="EFERMI">      0.00000000</i>
  </separator>
  <separator name="writing" >
   <i type="int" name="NWRITE">     2</i>
   <i type="logical" name="LWAVE"> T  </i>
   <i type="logical" name="LDOWNSAMPLE"> F  </i>
   <i type="logical" name="LCHARG"> T  </i>
   <i type="logical" name="LPARD"> F  </i>
   <i type="logical" name="LVTOT"> F  </i>
   <i type="logical" name="LVHAR"> F  </i>
   <i type="logical" name="LELF"> F  </i>
   <i type="logical" name="LOPTICS"> F  </i>
   <v name="STM">      0.00000000      0.00000000      0.00000000      0.00000000      0.00000000      0.00000000      0.00000000</v>
  </separator>
  <separator name="performance" >
   <i type="int" name="NPAR">    12</i>
   <i type="int" name="NSIM">     4</i>
   <i type="int" name="NBLK">    -1</i>
   <i type="logical" name="LPLANE"> T  </i>
   <i type="logical" name="LSCALAPACK"> T  </i>
   <i type="logical" name="LSCAAWARE"> F  </i>
   <i type="logical" name="LSCALU"> F  </i>
   <i type="logical" name="LASYNC"> F  </i>
   <i type="logical" name="LORBITALREAL"> F  </i>
  </separator>
  <separator name="miscellaneous" >
   <i type="int" name="IDIOT">     3</i>
   <i type="int" name="ISPECIAL">     0</i>
   <i type="logical" name="LMUSIC"> F  </i>
   <v name="POMASS">     10.81100000     12.01100000</v>
   <v name="DARWINR">      0.00000000      0.00000000</v>
   <v name="DARWINV">      1.00000000      1.00000000</v>
   <i type="logical" name="LCORR"> T  </i>
  </separator>
  <i type="logical" name="GGA_COMPAT"> T  </i>
  <i type="logical" name="LBERRY"> F  </i>
  <i type="int" name="ICORELEVEL">     0</i>
  <i type="logical" name="LDAU"> F  </i>
  <i type="int" name="I_CONSTRAINED_M">     0</i>
  <separator name="electronic exchange-correlation" >
   <i type="string" name="GGA">--</i>
   <i type="int" name="VOSKOWN">     0</i>
   <i type="logical" name="LHFCALC"> F  </i>
   <i type="string" name="PRECFOCK"></i>
   <i type="logical" name="LSYMGRAD"> F  </i>
   <i type="logical" name="LHFONE"> F  </i>
   <i type="logical" name="LRHFCALC"> F  </i>
   <i type="logical" name="LTHOMAS"> F  </i>
   <i type="logical" name="LMODELHF"> F  </i>
   <i name="ENCUT4O">     -1.00000000</i>
   <i type="int" name="EXXOEP">     0</i>
   <i type="int" name="FOURORBIT">     0</i>
   <i name="AEXX">      0.00000000</i>
   <i name="HFALPHA">      0.00000000</i>
   <i name="MCALPHA">      0.00000000</i>
   <i name="ALDAX">      1.00000000</i>
   <i name="AGGAX">      1.00000000</i>
   <i name="ALDAC">      1.00000000</i>
   <i name="AGGAC">      1.00000000</i>
   <i type="int" name="NKREDX">     1</i>
   <i type="int" name="NKREDY">     1</i>
   <i type="int" name="NKREDZ">     1</i>
   <i type="logical" name="SHIFTRED"> F  </i>
   <i type="logical" name="ODDONLY"> F  </i>
   <i type="logical" name="EVENONLY"> F  </i>
   <i type="int" name="LMAXFOCK">     0</i>
   <i type="int" name="NMAXFOCKAE">     0</i>
   <i type="logical" name="LFOCKAEDFT"> F  </i>
   <i name="HFSCREEN">      0.00000000</i>
   <i name="HFSCREENC">      0.00000000</i>
   <i type="int" name="NBANDSGWLOW">     0</i>
  </separator>
  <separator name="vdW DFT" >
   <i type="logical" name="LUSE_VDW"> F  </i>
   <i name="Zab_VDW">     -0.84910000</i>
   <i name="PARAM1">      0.12340000</i>
   <i name="PARAM2">      1.00000000</i>
   <i name="PARAM3">      0.00000000</i>
  </separator>
  <separator name="model GW" >
   <i type="int" name="MODEL_GW">     0</i>
   <i name="MODEL_EPS0">     26.08876623</i>
   <i name="MODEL_ALPHA">      1.00000000</i>
  </separator>
  <separator name="linear response parameters" >
   <i type="logical" name="LEPSILON"> F  </i>
   <i type="logical" name="LRPA"> F  </i>
   <i type="logical" name="LNABLA"> F  </i>
   <i type="logical" name="LVEL"> F  </i>
   <i type="int" name="KINTER">     0</i>
   <i name="CSHIFT">      0.10000000</i>
   <i name="OMEGAMAX">     -1.00000000</i>
   <i name="DEG_THRESHOLD">      0.00200000</i>
   <i name="RTIME">     -0.10000000</i>
   <i name="WPLASMAI">      0.00000000</i>
   <v name="DFIELD">      0.00000000      0.00000000      0.00000000</v>
   <v name="WPLASMA">      0.00000000      0.00000000      0.00000000      0.00000000      0.00000000      0.00000000      0.00000000      0.00000000      0.00000000</v>
  </separator>
  <separator name="orbital magnetization" >
   <i type="logical" name="NUCIND"> F  </i>
   <v name="MAGPOS">      0.00000000      0.00000000      0.00000000</v>
   <i type="logical" name="LNICSALL"> T  </i>
   <i type="logical" name="ORBITALMAG"> F  </i>
   <i type="logical" name="LMAGBLOCH"> F  </i>
   <i type="logical" name="LCHIMAG"> F  </i>
   <i type="logical" name="LGAUGE"> T  </i>
   <i type="int" name="MAGATOM">     0</i>
   <v name="MAGDIPOL">      0.00000000      0.00000000      0.00000000</v>
   <v name="AVECCONST">      0.00000000      0.00000000      0.00000000</v>
  </separator>
  <separator name="response functions" >
   <i type="logical" name="LADDER"> F  </i>
   <i type="logical" name="LRPAFORCE"> F  </i>
   <i type="logical" name="LFXC"> F  </i>
   <i type="logical" name="LHARTREE"> T  </i>
   <i type="int" name="IBSE">     0</i>
   <v type="int" name="KPOINT">    -1     0     0     0</v>
   <i type="logical" name="LTCTE"> F  </i>
   <i type="logical" name="LTETE"> F  </i>
   <i type="logical" name="LTRIPLET"> F  </i>
   <i type="logical" name="LFXCEPS"> F  </i>
   <i type="logical" name="LFXHEG"> F  </i>
   <i type="int" name="NATURALO">     2</i>
   <i type="logical" name="L2ORDER"> F  </i>
   <i type="logical" name="LMP2LT"> F  </i>
   <i type="logical" name="LUSEW"> F  </i>
   <i name="ENCUTGW">     -2.00000000</i>
   <i name="ENCUTGWSOFT">     -2.00000000</i>
   <i name="ENCUTLF">     -1.00000000</i>
   <i type="int" name="LMAXMP2">    -1</i>
   <i name="SCISSOR">      0.00000000</i>
   <i type="int" name="NOMEGA">     0</i>
   <i type="int" name="NOMEGAR">     0</i>
   <i type="int" name="NBANDSGW">    -1</i>
   <i type="int" name="NBANDSO">    -1</i>
   <i type="int" name="NBANDSV">    -1</i>
   <i type="int" name="NELM">     1</i>
   <i type="int" name="NELMHF">     1</i>
   <i type="int" name="DIM">     3</i>
   <i type="int" name="ANTIRES">     0</i>
   <i name="OMEGAMAX">    -30.00000000</i>
   <i name="OMEGAMIN">    -30.00000000</i>
   <i name="OMEGATL">   -200.00000000</i>
   <i type="int" name="OMEGAGRID">   140</i>
   <i name="CSHIFT">     -0.10000000</i>
   <i type="logical" name="SELFENERGY"> F  </i>
   <i type="logical" name="LSPECTRAL"> F  </i>
   <i type="logical" name="LSPECTRALGW"> F  </i>
   <i type="logical" name="LSINGLES"> F  </i>
   <i type="logical" name="LFERMIGW"> F  </i>
   <i type="logical" name="ODDONLYGW"> F  </i>
   <i type="logical" name="EVENONLYGW"> F  </i>
   <i type="int" name="NKREDLFX">     1</i>
   <i type="int" name="NKREDLFY">     1</i>
   <i type="int" name="NKREDLFZ">     1</i>
   <i type="int" name="MAXMEM">  2800</i>
   <i type="int" name="TELESCOPE">     0</i>
   <i type="int" name="TAUPAR">     1</i>
   <i type="int" name="OMEGAPAR">    -1</i>
   <i name="LAMBDA">      1.00000000</i>
  </separator>
  <separator name="External order field" >
   <i name="OFIELD_KAPPA">      0.00000000</i>
   <v name="OFIELD_K">      0.00000000      0.00000000      0.00000000</v>
   <i name="OFIELD_Q6_NEAR">      0.00000000</i>
   <i name="OFIELD_Q6_FAR">      0.00000000</i>
   <i name="OFIELD_A">      0.00000000</i>
  </separator>
 </parameters>
 <atominfo>
  <atoms>       8 </atoms>
  <types>       2 </types>
  <array name="atoms" >
   <dimension dim="1">ion</dimension>
   <field type="string">element</field>
   <field type="int">atomtype</field>
   <set>
    <rc><c>B </c><c>   1</c></rc>
    <rc><c>B </c><c>   1</c></rc>
    <rc><c>C </c><c>   2</c></rc>
    <rc><c>C </c><c>   2</c></rc>
    <rc><c>C </c><c>   2</c></rc>
    <rc><c>C </c><c>   2</c></rc>
    <rc><c>C </c><c>   2</c></rc>
    <rc><c>C </c><c>   2</c></rc>
   </set>
  </array>
  <array name="atomtypes" >
   <dimension dim="1">type</dimension>
   <field type="int">atomspertype</field>
   <field type="string">element</field>
   <field>mass</field>
   <field>valence</field>
   <field type="string">pseudopotential</field>
   <set>
    <rc><c>   2</c><c>B </c><c>     10.81100000</c><c>      3.00000000</c><c>  PAW_PBE B 06Sep2000                   </c></rc>
    <rc><c>   6</c><c>C </c><c>     12.01100000</c><c>      4.00000000</c><c>  PAW_PBE C 08Apr2002                   </c></rc>
   </set>
  </array>
 </atominfo>
 <structure name="initialpos" >
  <crystal>
   <varray name="basis" >
    <v>       4.48142200       2.58735000       0.00000000 </v>
    <v>      -4.48142200       2.58735000       0.00000000 </v>
    <v>       0.00000000       0.00000000      15.00000000 </v>
   </varray>
   <i name="volume">    347.85021635 </i>
   <varray name="rec_basis" >
    <v>       0.11157173       0.19324792       0.00000000 </v>
    <v>      -0.11157173       0.19324792       0.00000000 </v>
    <v>       0.00000000       0.00000000       0.06666667 </v>
   </varray>
  </crystal>
  <varray name="positions" >
   <v>       0.33333300       0.66666600       0.25000000 </v>
   <v>       0.66666600       0.33333300       0.25000000 </v>
   <v>       0.16666600       0.33333300       0.25000000 </v>
   <v>       0.33333300       0.16666600       0.25000000 </v>
   <v>       0.16666600       0.83333300       0.25000000 </v>
   <v>       0.83333300       0.16666600       0.25000000 </v>
   <v>       0.66666600       0.83333300       0.25000000 </v>
   <v>       0.83333300       0.66666600       0.25000000 </v>
  </varray>
 </structure>
 <calculation>
  <scstep>
   <time name="dav">    2.17    2.17</time>
   <time name="total">    2.30    2.30</time>
   <energy>
    <i name="alphaZ">     14.58243785 </i>
    <i name="ewald">   2579.36867383 </i>
    <i name="hartreedc">  -3341.51811835 </i>
    <i name="XCdc">     90.82341893 </i>
    <i name="pawpsdc">    738.13200929 </i>
    <i name="pawaedc">   -739.83780425 </i>
    <i name="eentropy">     -0.00448709 </i>
    <i name="bandstr">   -152.78317701 </i>
    <i name="atom">   1025.20389953 </i>
    <i name="e_fr_energy">    213.96685272 </i>
    <i name="e_wo_entrp">    213.97133981 </i>
    <i name="e_0_energy">    213.96909627 </i>
   </energy>
  </scstep>
  <scstep>
   <time name="dav">    2.92    2.92</time>
   <time name="total">    2.92    2.92</time>
   <energy>
    <i name="e_fr_energy">    -41.08035044 </i>
    <i name="e_wo_entrp">    -41.06947639 </i>
    <i name="e_0_energy">    -41.07491341 </i>
   </energy>
  </scstep>
  <scstep>
   <time name="dav">    2.71    2.71</time>
   <time name="total">    2.71    2.71</time>
   <energy>
    <i name="e_fr_energy">    -71.46287432 </i>
    <i name="e_wo_entrp">    -71.46287432 </i>
    <i name="e_0_energy">    -71.46287432 </i>
   </energy>
  </scstep>
  <scstep>
   <time name="dav">    2.70    2.70</time>
   <time name="total">    2.70    2.70</time>
   <energy>
    <i name="e_fr_energy">    -72.11658781 </i>
    <i name="e_wo_entrp">    -72.11658780 </i>
    <i name="e_0_energy">    -72.11658780 </i>
   </energy>
  </scstep>
  <scstep>
   <time name="dav">    2.76    2.76</time>
   <time name="total">    2.96    2.96</time>
   <energy>
    <i name="e_fr_energy">    -72.13833697 </i>
    <i name="e_wo_entrp">    -72.13833696 </i>
    <i name="e_0_energy">    -72.13833696 </i>
   </energy>
  </scstep>
  <scstep>
   <time name="dav">    2.64    2.65</time>
   <time name="total">    2.94    2.94</time>
   <energy>
    <i name="e_fr_energy">    -68.07604341 </i>
    <i name="e_wo_entrp">    -68.07604339 </i>
    <i name="e_0_energy">    -68.07604340 </i>
   </energy>
  </scstep>
  <scstep>
   <time name="dav">    2.88    2.88</time>
   <time name="total">    3.18    3.19</time>
   <energy>
    <i name="e_fr_energy">    -66.34824054 </i>
    <i name="e_wo_entrp">    -66.34819459 </i>
    <i name="e_0_energy">    -66.34821756 </i>
   </energy>
  </scstep>
  <scstep>
   <time name="dav">    2.87    2.87</time>
   <time name="total">    3.17    3.17</time>
   <energy>
    <i name="e_fr_energy">    -66.31163713 </i>
    <i name="e_wo_entrp">    -66.31158915 </i>
    <i name="e_0_energy">    -66.31161314 </i>
   </energy>
  </scstep>
  <scstep>
   <time name="dav">    2.60    2.61</time>
   <time name="total">    2.92    2.92</time>
   <energy>
    <i name="e_fr_energy">    -66.30203037 </i>
    <i name="e_wo_entrp">    -66.30196217 </i>
    <i name="e_0_energy">    -66.30199627 </i>
   </energy>
  </scstep>
  <scstep>
   <time name="dav">    2.41    2.42</time>
   <time name="total">    2.72    2.72</time>
   <energy>
    <i name="e_fr_energy">    -66.29359367 </i>
    <i name="e_wo_entrp">    -66.29348332 </i>
    <i name="e_0_energy">    -66.29353850 </i>
   </energy>
  </scstep>
  <scstep>
   <time name="dav">    2.29    2.30</time>
   <time name="total">    2.60    2.61</time>
   <energy>
    <i name="e_fr_energy">    -66.29186157 </i>
    <i name="e_wo_entrp">    -66.29172488 </i>
    <i name="e_0_energy">    -66.29179323 </i>
   </energy>
  </scstep>
  <scstep>
   <time name="dav">    2.19    2.19</time>
   <time name="total">    2.49    2.50</time>
   <energy>
    <i name="e_fr_energy">    -66.29220839 </i>
    <i name="e_wo_entrp">    -66.29206732 </i>
    <i name="e_0_energy">    -66.29213785 </i>
   </energy>
  </scstep>
  <scstep>
   <time name="dav">    2.51    2.51</time>
   <time name="total">    2.82    2.82</time>
   <energy>
    <i name="e_fr_energy">    -66.29418198 </i>
    <i name="e_wo_entrp">    -66.29404604 </i>
    <i name="e_0_energy">    -66.29411401 </i>
   </energy>
  </scstep>
  <scstep>
   <time name="dav">    2.27    2.27</time>
   <time name="total">    2.57    2.57</time>
   <energy>
    <i name="e_fr_energy">    -66.29665821 </i>
    <i name="e_wo_entrp">    -66.29652432 </i>
    <i name="e_0_energy">    -66.29659126 </i>
   </energy>
  </scstep>
  <scstep>
   <time name="dav">    2.47    2.47</time>
   <time name="total">    2.77    2.77</time>
   <energy>
    <i name="e_fr_energy">    -66.29723761 </i>
    <i name="e_wo_entrp">    -66.29710156 </i>
    <i name="e_0_energy">    -66.29716958 </i>
   </energy>
  </scstep>
  <scstep>
   <time name="dav">    2.22    2.22</time>
   <time name="total">    2.52    2.52</time>
   <energy>
    <i name="e_fr_energy">    -66.29753063 </i>
    <i name="e_wo_entrp">    -66.29739496 </i>
    <i name="e_0_energy">    -66.29746279 </i>
   </energy>
  </scstep>
  <scstep>
   <time name="dav">    2.48    2.48</time>
   <time name="total">    2.78    2.78</time>
   <energy>
    <i name="e_fr_energy">    -66.29755587 </i>
    <i name="e_wo_entrp">    -66.29742012 </i>
    <i name="e_0_energy">    -66.29748800 </i>
   </energy>
  </scstep>
  <scstep>
   <time name="dav">    1.85    1.85</time>
   <time name="total">    2.16    2.16</time>
   <energy>
    <i name="e_fr_energy">    -66.29756911 </i>
    <i name="e_wo_entrp">    -66.29743350 </i>
    <i name="e_0_energy">    -66.29750130 </i>
   </energy>
  </scstep>
  <scstep>
   <time name="dav">    2.16    2.16</time>
   <time name="total">    2.27    2.27</time>
   <energy>
    <i name="alphaZ">     14.58243785 </i>
    <i name="ewald">   2579.36867383 </i>
    <i name="hartreedc">  -3473.13047836 </i>
    <i name="XCdc">     95.51927360 </i>
    <i name="pawpsdc">   2846.55682924 </i>
    <i name="pawaedc">  -2849.07031704 </i>
    <i name="eentropy">     -0.00013564 </i>
    <i name="bandstr">   -305.32775282 </i>
    <i name="atom">   1025.20389953 </i>
    <i name="e_fr_energy">    -66.29756983 </i>
    <i name="e_wo_entrp">    -66.29743419 </i>
    <i name="e_0_energy">    -66.29750201 </i>
   </energy>
  </scstep>
  <structure>
   <crystal>
    <varray name="basis" >
     <v>       4.48142200       2.58735000       0.00000000 </v>
     <v>      -4.48142200       2.58735000       0.00000000 </v>
     <v>       0.00000000       0.00000000      15.00000000 </v>
    </varray>
    <i name="volume">    347.85021635 </i>
    <varray name="rec_basis" >
     <v>       0.11157173       0.19324792       0.00000000 </v>
     <v>      -0.11157173       0.19324792       0.00000000 </v>
     <v>       0.00000000       0.00000000       0.06666667 </v>
    </varray>
   </crystal>
   <varray name="positions" >
    <v>       0.33333300       0.66666600       0.25000000 </v>
    <v>       0.66666600       0.33333300       0.25000000 </v>
    <v>       0.16666600       0.33333300       0.25000000 </v>
    <v>       0.33333300       0.16666600       0.25000000 </v>
    <v>       0.16666600       0.83333300       0.25000000 </v>
    <v>       0.83333300       0.16666600       0.25000000 </v>
    <v>       0.66666600       0.83333300       0.25000000 </v>
    <v>       0.83333300       0.66666600       0.25000000 </v>
   </varray>
  </structure>
  <varray name="forces" >
   <v>       0.00000000       0.00000000      -0.00000000 </v>
   <v>       0.00000000       0.00000000      -0.00000000 </v>
   <v>       2.14483056      -3.71495522      -0.00000000 </v>
   <v>      -2.14483056      -3.71495522       0.00000000 </v>
   <v>      -4.28966113       0.00000000       0.00000000 </v>
   <v>       4.28966113       0.00000000      -0.00000000 </v>
   <v>       2.14483056       3.71495522       0.00000000 </v>
   <v>      -2.14483056       3.71495522      -0.00000000 </v>
  </varray>
  <varray name="stress" >
   <v>      -7.14991220       0.00000000       0.00000000 </v>
   <v>       0.00000000      -7.14991111       0.00000000 </v>
   <v>      -0.00000000      -0.00000000      -0.87034419 </v>
  </varray>
  <energy>
   <i name="e_fr_energy">    -66.29756983 </i>
   <i name="e_wo_entrp">    -66.29750201 </i>
   <i name="e_0_energy">     -0.00013564 </i>
  </energy>
  <time name="totalsc">   55.29   55.55</time>
 </calculation>
 <calculation>
  <scstep>
   <time name="dav">    2.17    2.17</time>
   <time name="total">    2.48    2.49</time>
   <energy>
    <i name="alphaZ">     14.87628454 </i>
    <i name="ewald">   2730.00930730 </i>
    <i name="hartreedc">  -3589.55312237 </i>
    <i name="XCdc">     97.35528276 </i>
    <i name="pawpsdc">   2846.54939950 </i>
    <i name="pawaedc">  -2849.06288777 </i>
    <i name="eentropy">     -0.00000000 </i>
    <i name="bandstr">   -339.21047622 </i>
    <i name="atom">   1025.20389953 </i>
    <i name="e_fr_energy">    -63.83231272 </i>
    <i name="e_wo_entrp">    -63.83231272 </i>
    <i name="e_0_energy">    -63.83231272 </i>
   </energy>
  </scstep>
  <scstep>
   <time name="dav">    2.76    2.76</time>
   <time name="total">    3.05    3.06</time>
   <energy>
    <i name="e_fr_energy">    -63.27732155 </i>
    <i name="e_wo_entrp">    -63.27732155 </i>
    <i name="e_0_energy">    -63.27732155 </i>
   </energy>
  </scstep>
  <scstep>
   <time name="dav">    2.41    2.41</time>
   <time name="total">    2.71    2.71</time>
   <energy>
    <i name="e_fr_energy">    -62.98214967 </i>
    <i name="e_wo_entrp">    -62.98214967 </i>
    <i name="e_0_energy">    -62.98214967 </i>
   </energy>
  </scstep>
  <scstep>
   <time name="dav">    2.61    2.61</time>
   <time name="total">    2.92    2.92</time>
   <energy>
    <i name="e_fr_energy">    -62.96812556 </i>
    <i name="e_wo_entrp">    -62.96812556 </i>
    <i name="e_0_energy">    -62.96812556 </i>
   </energy>
  </scstep>
  <scstep>
   <time name="dav">    2.52    2.52</time>
   <time name="total">    2.82    2.82</time>
   <energy>
    <i name="e_fr_energy">    -62.96391510 </i>
    <i name="e_wo_entrp">    -62.96391510 </i>
    <i name="e_0_energy">    -62.96391510 </i>
   </energy>
  </scstep>
  <scstep>
   <time name="dav">    2.21    2.22</time>
   <time name="total">    2.52    2.52</time>
   <energy>
    <i name="e_fr_energy">    -62.96411105 </i>
    <i name="e_wo_entrp">    -62.96411105 </i>
    <i name="e_0_energy">    -62.96411105 </i>
   </energy>
  </scstep>
  <scstep>
   <time name="dav">    2.20    2.20</time>
   <time name="total">    2.51    2.51</time>
   <energy>
    <i name="e_fr_energy">    -62.96424057 </i>
    <i name="e_wo_entrp">    -62.96424057 </i>
    <i name="e_0_energy">    -62.96424057 </i>
   </energy>
  </scstep>
  <scstep>
   <time name="dav">    2.39    2.39</time>
   <time name="total">    2.71    2.71</time>
   <energy>
    <i name="e_fr_energy">    -62.96432646 </i>
    <i name="e_wo_entrp">    -62.96432646 </i>
    <i name="e_0_energy">    -62.96432646 </i>
   </energy>
  </scstep>
  <scstep>
   <time name="dav">    2.20    2.20</time>
   <time name="total">    2.50    2.50</time>
   <energy>
    <i name="e_fr_energy">    -62.96449207 </i>
    <i name="e_wo_entrp">    -62.96449207 </i>
    <i name="e_0_energy">    -62.96449207 </i>
   </energy>
  </scstep>
  <scstep>
   <time name="dav">    2.43    2.43</time>
   <time name="total">    2.74    2.74</time>
   <energy>
    <i name="e_fr_energy">    -62.96454573 </i>
    <i name="e_wo_entrp">    -62.96454573 </i>
    <i name="e_0_energy">    -62.96454573 </i>
   </energy>
  </scstep>
  <scstep>
   <time name="dav">    2.47    2.47</time>
   <time name="total">    2.78    2.78</time>
   <energy>
    <i name="e_fr_energy">    -62.96458061 </i>
    <i name="e_wo_entrp">    -62.96458061 </i>
    <i name="e_0_energy">    -62.96458061 </i>
   </energy>
  </scstep>
  <scstep>
   <time name="dav">    2.33    2.33</time>
   <time name="total">    2.64    2.64</time>
   <energy>
    <i name="e_fr_energy">    -62.96464568 </i>
    <i name="e_wo_entrp">    -62.96464568 </i>
    <i name="e_0_energy">    -62.96464568 </i>
   </energy>
  </scstep>
  <scstep>
   <time name="dav">    2.08    2.08</time>
   <time name="total">    2.38    2.38</time>
   <energy>
    <i name="e_fr_energy">    -62.96465810 </i>
    <i name="e_wo_entrp">    -62.96465810 </i>
    <i name="e_0_energy">    -62.96465810 </i>
   </energy>
  </scstep>
  <scstep>
   <time name="dav">    2.12    2.12</time>
   <time name="total">    2.42    2.42</time>
   <energy>
    <i name="e_fr_energy">    -62.96467081 </i>
    <i name="e_wo_entrp">    -62.96467081 </i>
    <i name="e_0_energy">    -62.96467081 </i>
   </energy>
  </scstep>
  <scstep>
   <time name="dav">    1.88    1.88</time>
   <time name="total">    2.18    2.18</time>
   <energy>
    <i name="e_fr_energy">    -62.96467225 </i>
    <i name="e_wo_entrp">    -62.96467225 </i>
    <i name="e_0_energy">    -62.96467225 </i>
   </energy>
  </scstep>
  <scstep>
   <time name="dav">    1.86    1.86</time>
   <time name="total">    1.97    1.97</time>
   <energy>
    <i name="alphaZ">     14.87628454 </i>
    <i name="ewald">   2730.00930730 </i>
    <i name="hartreedc">  -3621.30899050 </i>
    <i name="XCdc">     98.44149356 </i>
    <i name="pawpsdc">   3570.05023356 </i>
    <i name="pawaedc">  -3572.85200685 </i>
    <i name="eentropy">     -0.00000000 </i>
    <i name="bandstr">   -307.38489385 </i>
    <i name="atom">   1025.20389953 </i>
    <i name="e_fr_energy">    -62.96467271 </i>
    <i name="e_wo_entrp">    -62.96467271 </i>
    <i name="e_0_energy">    -62.96467271 </i>
   </energy>
  </scstep>
  <structure>
   <crystal>
    <varray name="basis" >
     <v>       4.43947128       2.56312974       0.00000000 </v>
     <v>      -4.43947128       2.56312974      -0.00000000 </v>
     <v>      -0.00000000      -0.00000000      14.98290752 </v>
    </varray>
    <i name="volume">    340.97923761 </i>
    <varray name="rec_basis" >
     <v>       0.11262602       0.19507401       0.00000000 </v>
     <v>      -0.11262602       0.19507401       0.00000000 </v>
     <v>      -0.00000000      -0.00000000       0.06674272 </v>
    </varray>
   </crystal>
   <varray name="positions" >
    <v>       0.33333300       0.66666600       0.25000000 </v>
    <v>       0.66666600       0.33333300       0.25000000 </v>
    <v>       0.14357683       0.28715466       0.25000000 </v>
    <v>       0.28715466       0.14357683       0.25000000 </v>
    <v>       0.14357683       0.85642217       0.25000000 </v>
    <v>       0.85642217       0.14357683       0.25000000 </v>
    <v>       0.71284434       0.85642217       0.25000000 </v>
    <v>       0.85642217       0.71284434       0.25000000 </v>
   </varray>
  </structure>
  <varray name="forces" >
   <v>       0.00000000      -0.00000000       0.00000000 </v>
   <v>       0.00000000      -0.00000000       0.00000000 </v>
   <v>      -5.47889943       9.48973147       0.00000000 </v>
   <v>       5.47889943       9.48973147      -0.00000000 </v>
   <v>      10.95779887      -0.00000000      -0.00000000 </v>
   <v>     -10.95779887      -0.00000000      -0.00000000 </v>
   <v>      -5.47889943      -9.48973147       0.00000000 </v>
   <v>       5.47889943      -9.48973147       0.00000000 </v>
  </varray>
  <varray name="stress" >
   <v>     117.25005787       0.00000000       0.00000000 </v>
   <v>       0.00000000     117.25004026       0.00000000 </v>
   <v>       0.00000000       0.00000000      -0.74522482 </v>
  </varray>
  <energy>
   <i name="e_fr_energy">    -62.96467271 </i>
   <i name="e_wo_entrp">    -62.96467271 </i>
   <i name="e_0_energy">     -0.00000000 </i>
  </energy>
  <time name="totalsc">   43.75   43.82</time>
 </calculation>
 <calculation>
  <scstep>
   <time name="dav">    2.15    2.16</time>
   <time name="total">    2.46    2.46</time>
   <energy>
    <i name="alphaZ">     14.68358438 </i>
    <i name="ewald">   2616.75428732 </i>
    <i name="hartreedc">  -3529.60540193 </i>
    <i name="XCdc">     96.83907315 </i>
    <i name="pawpsdc">   3570.04849242 </i>
    <i name="pawaedc">  -3572.85026646 </i>
    <i name="eentropy">     -0.00307543 </i>
    <i name="bandstr">   -288.83470189 </i>
    <i name="atom">   1025.20389953 </i>
    <i name="e_fr_energy">    -67.76410891 </i>
    <i name="e_wo_entrp">    -67.76103348 </i>
    <i name="e_0_energy">    -67.76257120 </i>
   </energy>
  </scstep>
  <scstep>
   <time name="dav">    2.70    2.70</time>
   <time name="total">    3.00    3.00</time>
   <energy>
    <i name="e_fr_energy">    -67.30894011 </i>
    <i name="e_wo_entrp">    -67.30893757 </i>
    <i name="e_0_energy">    -67.30893884 </i>
   </energy>
  </scstep>
  <scstep>
   <time name="dav">    2.46    2.46</time>
   <time name="total">    2.75    2.75</time>
   <energy>
    <i name="e_fr_energy">    -67.23136440 </i>
    <i name="e_wo_entrp">    -67.23136429 </i>
    <i name="e_0_energy">    -67.23136435 </i>
   </energy>
  </scstep>
  <scstep>
   <time name="dav">    2.61    2.61</time>
   <time name="total">    2.91    2.91</time>
   <energy>
    <i name="e_fr_energy">    -67.22881971 </i>
    <i name="e_wo_entrp">    -67.22881931 </i>
    <i name="e_0_energy">    -67.22881951 </i>
   </energy>
  </scstep>
  <scstep>
   <time name="dav">    2.55    2.55</time>
   <time name="total">    2.85    2.85</time>
   <energy>
    <i name="e_fr_energy">    -67.22582985 </i>
    <i name="e_wo_entrp">    -67.22582967 </i>
    <i name="e_0_energy">    -67.22582976 </i>
   </energy>
  </scstep>
  <scstep>
   <time name="dav">    2.57    2.57</time>
   <time name="total">    2.87    2.87</time>
   <energy>
    <i name="e_fr_energy">    -67.22582629 </i>
    <i name="e_wo_entrp">    -67.22582613 </i>
    <i name="e_0_energy">    -67.22582621 </i>
   </energy>
  </scstep>
  <scstep>
   <time name="dav">    2.61    2.61</time>
   <time name="total">    2.91    2.91</time>
   <energy>
    <i name="e_fr_energy">    -67.22598054 </i>
    <i name="e_wo_entrp">    -67.22598039 </i>
    <i name="e_0_energy">    -67.22598047 </i>
   </energy>
  </scstep>
  <scstep>
   <time name="dav">    2.50    2.50</time>
   <time name="total">    2.79    2.80</time>
   <energy>
    <i name="e_fr_energy">    -67.22603987 </i>
    <i name="e_wo_entrp">    -67.22603971 </i>
    <i name="e_0_energy">    -67.22603979 </i>
   </energy>
  </scstep>
  <scstep>
   <time name="dav">    2.29    2.29</time>
   <time name="total">    2.59    2.59</time>
   <energy>
    <i name="e_fr_energy">    -67.22617740 </i>
    <i name="e_wo_entrp">    -67.22617724 </i>
    <i name="e_0_energy">    -67.22617732 </i>
   </energy>
  </scstep>
  <scstep>
   <time name="dav">    2.46    2.46</time>
   <time name="total">    2.75    2.75</time>
   <energy>
    <i name="e_fr_energy">    -67.22620894 </i>
    <i name="e_wo_entrp">    -67.22620878 </i>
    <i name="e_0_energy">    -67.22620886 </i>
   </energy>
  </scstep>
  <scstep>
   <time name="dav">    2.35    2.35</time>
   <time name="total">    2.65    2.66</time>
   <energy>
    <i name="e_fr_energy">    -67.22621465 </i>
    <i name="e_wo_entrp">    -67.22621449 </i>
    <i name="e_0_energy">    -67.22621457 </i>
   </energy>
  </scstep>
  <scstep>
   <time name="dav">    2.39    2.39</time>
   <time name="total">    2.69    2.69</time>
   <energy>
    <i name="e_fr_energy">    -67.22621329 </i>
    <i name="e_wo_entrp">    -67.22621313 </i>
    <i name="e_0_energy">    -67.22621321 </i>
   </energy>
  </scstep>
  <scstep>
   <time name="dav">    2.14    2.14</time>
   <time name="total">    2.25    2.25</time>
   <energy>
    <i name="alphaZ">     14.68358438 </i>
    <i name="ewald">   2616.75428732 </i>
    <i name="hartreedc">  -3512.36175696 </i>
    <i name="XCdc">     96.21271539 </i>
    <i name="pawpsdc">   2933.48703522 </i>
    <i name="pawaedc">  -2936.03285961 </i>
    <i name="eentropy">     -0.00000016 </i>
    <i name="bandstr">   -305.17311907 </i>
    <i name="atom">   1025.20389953 </i>
    <i name="e_fr_energy">    -67.22621396 </i>
    <i name="e_wo_entrp">    -67.22621381 </i>
    <i name="e_0_energy">    -67.22621389 </i>
   </energy>
  </scstep>
  <structure>
   <crystal>
    <varray name="basis" >
     <v>       4.46684482       2.57893386       0.00000000 </v>
     <v>      -4.46684482       2.57893386      -0.00000000 </v>
     <v>      -0.00000000      -0.00000000      14.99406065 </v>
    </varray>
    <i name="volume">    345.45408178 </i>
    <varray name="rec_basis" >
     <v>       0.11193583       0.19387857       0.00000000 </v>
     <v>      -0.11193583       0.19387857       0.00000000 </v>
     <v>      -0.00000000      -0.00000000       0.06669307 </v>
    </varray>
   </crystal>
   <varray name="positions" >
    <v>       0.33333300       0.66666600       0.25000000 </v>
    <v>       0.66666600       0.33333300       0.25000000 </v>
    <v>       0.15878526       0.31757153       0.25000000 </v>
    <v>       0.31757153       0.15878526       0.25000000 </v>
    <v>       0.15878526       0.84121374       0.25000000 </v>
    <v>       0.84121374       0.15878526       0.25000000 </v>
    <v>       0.68242747       0.84121374       0.25000000 </v>
    <v>       0.84121374       0.68242747       0.25000000 </v>
   </varray>
  </structure>
  <varray name="forces" >
   <v>      -0.00000000       0.00000000       0.00000000 </v>
   <v>      -0.00000000      -0.00000000       0.00000000 </v>
   <v>      -0.00571324       0.00989561       0.00000000 </v>
   <v>       0.00571324       0.00989561       0.00000000 </v>
   <v>       0.01142647      -0.00000000       0.00000000 </v>
   <v>      -0.01142647       0.00000000       0.00000000 </v>
   <v>      -0.00571324      -0.00989561       0.00000000 </v>
   <v>       0.00571324      -0.00989561      -0.00000000 </v>
  </varray>
  <varray name="stress" >
   <v>       6.54066615       0.00000000       0.00000000 </v>
   <v>       0.00000000       6.54066515       0.00000000 </v>
   <v>       0.00000000       0.00000000      -0.81532688 </v>
  </varray>
  <energy>
   <i name="e_fr_energy">    -67.22621396 </i>
   <i name="e_wo_entrp">    -67.22621389 </i>
   <i name="e_0_energy">     -0.00000016 </i>
  </energy>
  <time name="totalsc">   37.88   37.90</time>
 </calculation>
 <calculation>
  <scstep>
   <time name="dav">    2.23    2.23</time>
   <time name="total">    2.54    2.54</time>
   <energy>
    <i name="alphaZ">     14.68282350 </i>
    <i name="ewald">   2616.41762252 </i>
    <i name="hartreedc">  -3512.06830491 </i>
    <i name="XCdc">     96.20826483 </i>
    <i name="pawpsdc">   2933.70095078 </i>
    <i name="pawaedc">  -2936.24677524 </i>
    <i name="eentropy">     -0.00000018 </i>
    <i name="bandstr">   -305.12475348 </i>
    <i name="atom">   1025.20389953 </i>
    <i name="e_fr_energy">    -67.22627264 </i>
    <i name="e_wo_entrp">    -67.22627246 </i>
    <i name="e_0_energy">    -67.22627255 </i>
   </energy>
  </scstep>
  <scstep>
   <time name="dav">    2.29    2.29</time>
   <time name="total">    2.60    2.60</time>
   <energy>
    <i name="e_fr_energy">    -67.22626528 </i>
    <i name="e_wo_entrp">    -67.22626511 </i>
    <i name="e_0_energy">    -67.22626520 </i>
   </energy>
  </scstep>
  <scstep>
   <time name="dav">    2.71    2.71</time>
   <time name="total">    3.01    3.01</time>
   <energy>
    <i name="e_fr_energy">    -67.22626437 </i>
    <i name="e_wo_entrp">    -67.22626420 </i>
    <i name="e_0_energy">    -67.22626429 </i>
   </energy>
  </scstep>
  <scstep>
   <time name="dav">    2.47    2.47</time>
   <time name="total">    2.58    2.58</time>
   <energy>
    <i name="alphaZ">     14.68282350 </i>
    <i name="ewald">   2616.41762252 </i>
    <i name="hartreedc">  -3512.01872228 </i>
    <i name="XCdc">     96.20629303 </i>
    <i name="pawpsdc">   2932.47710457 </i>
    <i name="pawaedc">  -2935.02239269 </i>
    <i name="eentropy">     -0.00000017 </i>
    <i name="bandstr">   -305.17289252 </i>
    <i name="atom">   1025.20389953 </i>
    <i name="e_fr_energy">    -67.22626452 </i>
    <i name="e_wo_entrp">    -67.22626435 </i>
    <i name="e_0_energy">    -67.22626444 </i>
   </energy>
  </scstep>
  <structure>
   <crystal>
    <varray name="basis" >
     <v>       4.46695393       2.57899686       0.00000000 </v>
     <v>      -4.46695393       2.57899686      -0.00000000 </v>
     <v>      -0.00000000      -0.00000000      14.99410510 </v>
    </varray>
    <i name="volume">    345.47198358 </i>
    <varray name="rec_basis" >
     <v>       0.11193310       0.19387383       0.00000000 </v>
     <v>      -0.11193310       0.19387383       0.00000000 </v>
     <v>      -0.00000000      -0.00000000       0.06669288 </v>
    </varray>
   </crystal>
   <varray name="positions" >
    <v>       0.33333300       0.66666600       0.25000000 </v>
    <v>       0.66666600       0.33333300       0.25000000 </v>
    <v>       0.15884551       0.31769203       0.25000000 </v>
    <v>       0.31769203       0.15884551       0.25000000 </v>
    <v>       0.15884551       0.84115349       0.25000000 </v>
    <v>       0.84115349       0.15884551       0.25000000 </v>
    <v>       0.68230697       0.84115349       0.25000000 </v>
    <v>       0.84115349       0.68230697       0.25000000 </v>
   </varray>
  </structure>
  <varray name="forces" >
   <v>       0.00000000       0.00000000       0.00000000 </v>
   <v>       0.00000000       0.00000000       0.00000000 </v>
   <v>       0.01177470      -0.02039438       0.00000000 </v>
   <v>      -0.01177470      -0.02039438      -0.00000000 </v>
   <v>      -0.02354941       0.00000000       0.00000000 </v>
   <v>       0.02354941       0.00000000      -0.00000000 </v>
   <v>       0.01177470       0.02039438       0.00000000 </v>
   <v>      -0.01177470       0.02039438      -0.00000000 </v>
  </varray>
  <varray name="stress" >
   <v>       6.33468119       0.00000000       0.00000000 </v>
   <v>       0.00000000       6.33468023       0.00000000 </v>
   <v>      -0.00000000       0.00000000      -0.81702011 </v>
  </varray>
  <energy>
   <i name="e_fr_energy">    -67.22626452 </i>
   <i name="e_wo_entrp">    -67.22626444 </i>
   <i name="e_0_energy">     -0.00000017 </i>
  </energy>
  <time name="totalsc">   13.13   13.17</time>
 </calculation>
 <calculation>
  <scstep>
   <time name="dav">    2.38    2.39</time>
   <time name="total">    2.69    2.70</time>
   <energy>
    <i name="alphaZ">     14.48912269 </i>
    <i name="ewald">   2563.36186917 </i>
    <i name="hartreedc">  -3460.57541422 </i>
    <i name="XCdc">     95.80258804 </i>
    <i name="pawpsdc">   2932.39477773 </i>
    <i name="pawaedc">  -2934.94005052 </i>
    <i name="eentropy">     -0.00000005 </i>
    <i name="bandstr">   -302.96486173 </i>
    <i name="atom">   1025.20389953 </i>
    <i name="e_fr_energy">    -67.22806936 </i>
    <i name="e_wo_entrp">    -67.22806931 </i>
    <i name="e_0_energy">    -67.22806933 </i>
   </energy>
  </scstep>
  <scstep>
   <time name="dav">    2.31    2.31</time>
   <time name="total">    2.62    2.62</time>
   <energy>
    <i name="e_fr_energy">    -67.22429969 </i>
    <i name="e_wo_entrp">    -67.22429964 </i>
    <i name="e_0_energy">    -67.22429966 </i>
   </energy>
  </scstep>
  <scstep>
   <time name="dav">    2.69    2.69</time>
   <time name="total">    2.99    3.00</time>
   <energy>
    <i name="e_fr_energy">    -67.22240143 </i>
    <i name="e_wo_entrp">    -67.22240140 </i>
    <i name="e_0_energy">    -67.22240142 </i>
   </energy>
  </scstep>
  <scstep>
   <time name="dav">    2.53    2.54</time>
   <time name="total">    2.83    2.83</time>
   <energy>
    <i name="e_fr_energy">    -67.22228636 </i>
    <i name="e_wo_entrp">    -67.22228634 </i>
    <i name="e_0_energy">    -67.22228635 </i>
   </energy>
  </scstep>
  <scstep>
   <time name="dav">    2.49    2.50</time>
   <time name="total">    2.78    2.79</time>
   <energy>
    <i name="e_fr_energy">    -67.22228397 </i>
    <i name="e_wo_entrp">    -67.22228394 </i>
    <i name="e_0_energy">    -67.22228395 </i>
   </energy>
  </scstep>
  <scstep>
   <time name="dav">    2.29    2.29</time>
   <time name="total">    2.59    2.59</time>
   <energy>
    <i name="e_fr_energy">    -67.22234091 </i>
    <i name="e_wo_entrp">    -67.22234088 </i>
    <i name="e_0_energy">    -67.22234090 </i>
   </energy>
  </scstep>
  <scstep>
   <time name="dav">    2.31    2.31</time>
   <time name="total">    2.61    2.61</time>
   <energy>
    <i name="e_fr_energy">    -67.22239848 </i>
    <i name="e_wo_entrp">    -67.22239845 </i>
    <i name="e_0_energy">    -67.22239846 </i>
   </energy>
  </scstep>
  <scstep>
   <time name="dav">    2.37    2.38</time>
   <time name="total">    2.68    2.68</time>
   <energy>
    <i name="e_fr_energy">    -67.22243591 </i>
    <i name="e_wo_entrp">    -67.22243589 </i>
    <i name="e_0_energy">    -67.22243590 </i>
   </energy>
  </scstep>
  <scstep>
   <time name="dav">    2.67    2.67</time>
   <time name="total">    2.97    2.98</time>
   <energy>
    <i name="e_fr_energy">    -67.22244276 </i>
    <i name="e_wo_entrp">    -67.22244274 </i>
    <i name="e_0_energy">    -67.22244275 </i>
   </energy>
  </scstep>
  <scstep>
   <time name="dav">    2.24    2.25</time>
   <time name="total">    2.37    2.37</time>
   <energy>
    <i name="alphaZ">     14.48912269 </i>
    <i name="ewald">   2563.36186917 </i>
    <i name="hartreedc">  -3458.41108499 </i>
    <i name="XCdc">     95.77265883 </i>
    <i name="pawpsdc">   2843.39818273 </i>
    <i name="pawaedc">  -2845.90161317 </i>
    <i name="eentropy">     -0.00000002 </i>
    <i name="bandstr">   -305.13547767 </i>
    <i name="atom">   1025.20389953 </i>
    <i name="e_fr_energy">    -67.22244291 </i>
    <i name="e_wo_entrp">    -67.22244289 </i>
    <i name="e_0_energy">    -67.22244290 </i>
   </energy>
  </scstep>
  <structure>
   <crystal>
    <varray name="basis" >
     <v>       4.49879847       2.59738231       0.00000000 </v>
     <v>      -4.49879847       2.59738231      -0.00000000 </v>
     <v>      -0.00000000      -0.00000000      14.98021029 </v>
    </varray>
    <i name="volume">    350.09049670 </i>
    <varray name="rec_basis" >
     <v>       0.11114079       0.19250150       0.00000000 </v>
     <v>      -0.11114079       0.19250150       0.00000000 </v>
     <v>      -0.00000000      -0.00000000       0.06675474 </v>
    </varray>
   </crystal>
   <varray name="positions" >
    <v>       0.33333300       0.66666600       0.25000000 </v>
    <v>       0.66666600       0.33333300       0.25000000 </v>
    <v>       0.15866367       0.31732834       0.25000000 </v>
    <v>       0.31732834       0.15866367       0.25000000 </v>
    <v>       0.15866367       0.84133533       0.25000000 </v>
    <v>       0.84133533       0.15866367       0.25000000 </v>
    <v>       0.68267066       0.84133533       0.25000000 </v>
    <v>       0.84133533       0.68267066       0.25000000 </v>
   </varray>
  </structure>
  <varray name="forces" >
   <v>      -0.00000000      -0.00000000      -0.00000000 </v>
   <v>      -0.00000000      -0.00000000      -0.00000000 </v>
   <v>       0.03154011      -0.05462908      -0.00000000 </v>
   <v>      -0.03154011      -0.05462908      -0.00000000 </v>
   <v>      -0.06308023      -0.00000000       0.00000000 </v>
   <v>       0.06308023      -0.00000000      -0.00000000 </v>
   <v>       0.03154011       0.05462908       0.00000000 </v>
   <v>      -0.03154011       0.05462908       0.00000000 </v>
  </varray>
  <varray name="stress" >
   <v>      -8.97890887       0.00000000      -0.00000000 </v>
   <v>       0.00000000      -8.97890749       0.00000000 </v>
   <v>      -0.00000000      -0.00000000      -0.85935603 </v>
  </varray>
  <energy>
   <i name="e_fr_energy">    -67.22244291 </i>
   <i name="e_wo_entrp">    -67.22244290 </i>
   <i name="e_0_energy">     -0.00000002 </i>
  </energy>
  <time name="totalsc">   29.54   29.65</time>
 </calculation>
 <calculation>
  <scstep>
   <time name="dav">    2.47    2.47</time>
   <time name="total">    2.77    2.78</time>
   <energy>
    <i name="alphaZ">     14.60152030 </i>
    <i name="ewald">   2594.13216392 </i>
    <i name="hartreedc">  -3488.21730489 </i>
    <i name="XCdc">     96.00719729 </i>
    <i name="pawpsdc">   2843.44524854 </i>
    <i name="pawaedc">  -2845.94864412 </i>
    <i name="eentropy">     -0.00000005 </i>
    <i name="bandstr">   -306.45631270 </i>
    <i name="atom">   1025.20389953 </i>
    <i name="e_fr_energy">    -67.23223217 </i>
    <i name="e_wo_entrp">    -67.23223212 </i>
    <i name="e_0_energy">    -67.23223214 </i>
   </energy>
  </scstep>
  <scstep>
   <time name="dav">    2.77    2.78</time>
   <time name="total">    3.08    3.08</time>
   <energy>
    <i name="e_fr_energy">    -67.23097680 </i>
    <i name="e_wo_entrp">    -67.23097675 </i>
    <i name="e_0_energy">    -67.23097677 </i>
   </energy>
  </scstep>
  <scstep>
   <time name="dav">    2.39    2.39</time>
   <time name="total">    2.69    2.70</time>
   <energy>
    <i name="e_fr_energy">    -67.23036985 </i>
    <i name="e_wo_entrp">    -67.23036979 </i>
    <i name="e_0_energy">    -67.23036982 </i>
   </energy>
  </scstep>
  <scstep>
   <time name="dav">    2.71    2.72</time>
   <time name="total">    3.02    3.02</time>
   <energy>
    <i name="e_fr_energy">    -67.23032424 </i>
    <i name="e_wo_entrp">    -67.23032417 </i>
    <i name="e_0_energy">    -67.23032421 </i>
   </energy>
  </scstep>
  <scstep>
   <time name="dav">    2.50    2.50</time>
   <time name="total">    2.80    2.81</time>
   <energy>
    <i name="e_fr_energy">    -67.23031750 </i>
    <i name="e_wo_entrp">    -67.23031742 </i>
    <i name="e_0_energy">    -67.23031746 </i>
   </energy>
  </scstep>
  <scstep>
   <time name="dav">    2.01    2.01</time>
   <time name="total">    2.32    2.32</time>
   <energy>
    <i name="e_fr_energy">    -67.23032650 </i>
    <i name="e_wo_entrp">    -67.23032643 </i>
    <i name="e_0_energy">    -67.23032646 </i>
   </energy>
  </scstep>
  <scstep>
   <time name="dav">    2.17    2.18</time>
   <time name="total">    2.48    2.49</time>
   <energy>
    <i name="e_fr_energy">    -67.23033866 </i>
    <i name="e_wo_entrp">    -67.23033859 </i>
    <i name="e_0_energy">    -67.23033862 </i>
   </energy>
  </scstep>
  <scstep>
   <time name="dav">    2.20    2.20</time>
   <time name="total">    2.51    2.51</time>
   <energy>
    <i name="e_fr_energy">    -67.23035529 </i>
    <i name="e_wo_entrp">    -67.23035522 </i>
    <i name="e_0_energy">    -67.23035526 </i>
   </energy>
  </scstep>
  <scstep>
   <time name="dav">    2.29    2.29</time>
   <time name="total">    2.60    2.60</time>
   <energy>
    <i name="e_fr_energy">    -67.23035814 </i>
    <i name="e_wo_entrp">    -67.23035807 </i>
    <i name="e_0_energy">    -67.23035810 </i>
   </energy>
  </scstep>
  <scstep>
   <time name="dav">    2.13    2.13</time>
   <time name="total">    2.45    2.45</time>
   <energy>
    <i name="e_fr_energy">    -67.23036355 </i>
    <i name="e_wo_entrp">    -67.23036348 </i>
    <i name="e_0_energy">    -67.23036352 </i>
   </energy>
  </scstep>
  <scstep>
   <time name="dav">    2.09    2.09</time>
   <time name="total">    2.40    2.40</time>
   <energy>
    <i name="e_fr_energy">    -67.23036726 </i>
    <i name="e_wo_entrp">    -67.23036718 </i>
    <i name="e_0_energy">    -67.23036722 </i>
   </energy>
  </scstep>
  <scstep>
   <time name="dav">    2.15    2.15</time>
   <time name="total">    2.46    2.46</time>
   <energy>
    <i name="e_fr_energy">    -67.23036844 </i>
    <i name="e_wo_entrp">    -67.23036837 </i>
    <i name="e_0_energy">    -67.23036841 </i>
   </energy>
  </scstep>
  <scstep>
   <time name="dav">    1.79    1.79</time>
   <time name="total">    2.10    2.10</time>
   <energy>
    <i name="e_fr_energy">    -67.23037002 </i>
    <i name="e_wo_entrp">    -67.23036995 </i>
    <i name="e_0_energy">    -67.23036998 </i>
   </energy>
  </scstep>
  <scstep>
   <time name="dav">    2.06    2.06</time>
   <time name="total">    2.17    2.17</time>
   <energy>
    <i name="alphaZ">     14.60152030 </i>
    <i name="ewald">   2594.13216392 </i>
    <i name="hartreedc">  -3489.49448362 </i>
    <i name="XCdc">     96.02455063 </i>
    <i name="pawpsdc">   2894.83119622 </i>
    <i name="pawaedc">  -2897.35887316 </i>
    <i name="eentropy">     -0.00000007 </i>
    <i name="bandstr">   -305.17034381 </i>
    <i name="atom">   1025.20389953 </i>
    <i name="e_fr_energy">    -67.23037007 </i>
    <i name="e_wo_entrp">    -67.23037000 </i>
    <i name="e_0_energy">    -67.23037004 </i>
   </energy>
  </scstep>
  <structure>
   <crystal>
    <varray name="basis" >
     <v>       4.48023908       2.58666704       0.00000000 </v>
     <v>      -4.48023908       2.58666704      -0.00000000 </v>
     <v>      -0.00000000      -0.00000000      14.98830836 </v>
    </varray>
    <i name="volume">    347.39561736 </i>
    <varray name="rec_basis" >
     <v>       0.11160119       0.19329894       0.00000000 </v>
     <v>      -0.11160119       0.19329894       0.00000000 </v>
     <v>      -0.00000000      -0.00000000       0.06671867 </v>
    </varray>
   </crystal>
   <varray name="positions" >
    <v>       0.33333300       0.66666600       0.25000000 </v>
    <v>       0.66666600       0.33333300       0.25000000 </v>
    <v>       0.15876890       0.31753880       0.25000000 </v>
    <v>       0.31753880       0.15876890       0.25000000 </v>
    <v>       0.15876890       0.84123010       0.25000000 </v>
    <v>       0.84123010       0.15876890       0.25000000 </v>
    <v>       0.68246020       0.84123010       0.25000000 </v>
    <v>       0.84123010       0.68246020       0.25000000 </v>
   </varray>
  </structure>
  <varray name="forces" >
   <v>       0.00000000      -0.00000000      -0.00000000 </v>
   <v>       0.00000000       0.00000000      -0.00000000 </v>
   <v>       0.01974807      -0.03420466      -0.00000000 </v>
   <v>      -0.01974807      -0.03420466      -0.00000000 </v>
   <v>      -0.03949615       0.00000000       0.00000000 </v>
   <v>       0.03949615      -0.00000000      -0.00000000 </v>
   <v>       0.01974807       0.03420466       0.00000000 </v>
   <v>      -0.01974807       0.03420466       0.00000000 </v>
  </varray>
  <varray name="stress" >
   <v>      -0.17265024       0.00000000      -0.00000000 </v>
   <v>       0.00000000      -0.17265021       0.00000000 </v>
   <v>       0.00000000       0.00000000      -0.82709838 </v>
  </varray>
  <energy>
   <i name="e_fr_energy">    -67.23037007 </i>
   <i name="e_wo_entrp">    -67.23037004 </i>
   <i name="e_0_energy">     -0.00000007 </i>
  </energy>
  <time name="totalsc">   38.26   38.35</time>
 </calculation>
 <calculation>
  <scstep>
   <time name="dav">    2.17    2.17</time>
   <time name="total">    2.47    2.48</time>
   <energy>
    <i name="alphaZ">     14.61254716 </i>
    <i name="ewald">   2590.49658522 </i>
    <i name="hartreedc">  -3486.59344785 </i>
    <i name="XCdc">     96.05520660 </i>
    <i name="pawpsdc">   2894.83290197 </i>
    <i name="pawaedc">  -2897.36057770 </i>
    <i name="eentropy">     -0.00000008 </i>
    <i name="bandstr">   -304.47771089 </i>
    <i name="atom">   1025.20389953 </i>
    <i name="e_fr_energy">    -67.23059605 </i>
    <i name="e_wo_entrp">    -67.23059597 </i>
    <i name="e_0_energy">    -67.23059601 </i>
   </energy>
  </scstep>
  <scstep>
   <time name="dav">    2.17    2.17</time>
   <time name="total">    2.48    2.48</time>
   <energy>
    <i name="e_fr_energy">    -67.23051602 </i>
    <i name="e_wo_entrp">    -67.23051595 </i>
    <i name="e_0_energy">    -67.23051599 </i>
   </energy>
  </scstep>
  <scstep>
   <time name="dav">    2.53    2.53</time>
   <time name="total">    2.83    2.83</time>
   <energy>
    <i name="e_fr_energy">    -67.23044154 </i>
    <i name="e_wo_entrp">    -67.23044148 </i>
    <i name="e_0_energy">    -67.23044151 </i>
   </energy>
  </scstep>
  <scstep>
   <time name="dav">    2.57    2.57</time>
   <time name="total">    2.87    2.87</time>
   <energy>
    <i name="e_fr_energy">    -67.23043397 </i>
    <i name="e_wo_entrp">    -67.23043390 </i>
    <i name="e_0_energy">    -67.23043393 </i>
   </energy>
  </scstep>
  <scstep>
   <time name="dav">    2.39    2.40</time>
   <time name="total">    2.50    2.50</time>
   <energy>
    <i name="alphaZ">     14.61254716 </i>
    <i name="ewald">   2590.49658522 </i>
    <i name="hartreedc">  -3486.04214637 </i>
    <i name="XCdc">     96.03614390 </i>
    <i name="pawpsdc">   2896.40366266 </i>
    <i name="pawaedc">  -2898.93175649 </i>
    <i name="eentropy">     -0.00000006 </i>
    <i name="bandstr">   -305.00936919 </i>
    <i name="atom">   1025.20389953 </i>
    <i name="e_fr_energy">    -67.23043365 </i>
    <i name="e_wo_entrp">    -67.23043359 </i>
    <i name="e_0_energy">    -67.23043362 </i>
   </energy>
  </scstep>
  <structure>
   <crystal>
    <varray name="basis" >
     <v>       4.48047442       2.58680291       0.00000000 </v>
     <v>      -4.48047442       2.58680291      -0.00000000 </v>
     <v>      -0.00000000      -0.00000000      14.97542469 </v>
    </varray>
    <i name="volume">    347.13346727 </i>
    <varray name="rec_basis" >
     <v>       0.11159533       0.19328879       0.00000000 </v>
     <v>      -0.11159533       0.19328879       0.00000000 </v>
     <v>      -0.00000000      -0.00000000       0.06677607 </v>
    </varray>
   </crystal>
   <varray name="positions" >
    <v>       0.33333300       0.66666600       0.25000000 </v>
    <v>       0.66666600       0.33333300       0.25000000 </v>
    <v>       0.15859991       0.31720082       0.25000000 </v>
    <v>       0.31720082       0.15859991       0.25000000 </v>
    <v>       0.15859991       0.84139909       0.25000000 </v>
    <v>       0.84139909       0.15859991       0.25000000 </v>
    <v>       0.68279818       0.84139909       0.25000000 </v>
    <v>       0.84139909       0.68279818       0.25000000 </v>
   </varray>
  </structure>
  <varray name="forces" >
   <v>       0.00000000       0.00000000       0.00000000 </v>
   <v>       0.00000000       0.00000000       0.00000000 </v>
   <v>      -0.02766395       0.04791536      -0.00000000 </v>
   <v>       0.02766395       0.04791536       0.00000000 </v>
   <v>       0.05532790       0.00000000       0.00000000 </v>
   <v>      -0.05532790       0.00000000       0.00000000 </v>
   <v>      -0.02766395      -0.04791536       0.00000000 </v>
   <v>       0.02766395      -0.04791536       0.00000000 </v>
  </varray>
  <varray name="stress" >
   <v>       0.14761267       0.00000000       0.00000000 </v>
   <v>       0.00000000       0.14761265       0.00000000 </v>
   <v>       0.00000000       0.00000000      -0.85417892 </v>
  </varray>
  <energy>
   <i name="e_fr_energy">    -67.23043365 </i>
   <i name="e_wo_entrp">    -67.23043362 </i>
   <i name="e_0_energy">     -0.00000006 </i>
  </energy>
  <time name="totalsc">   15.56   15.65</time>
 </calculation>
 <calculation>
  <scstep>
   <time name="dav">    2.24    2.26</time>
   <time name="total">    2.55    2.57</time>
   <energy>
    <i name="alphaZ">     14.60772810 </i>
    <i name="ewald">   2592.08377200 </i>
    <i name="hartreedc">  -3487.28181328 </i>
    <i name="XCdc">     96.02266831 </i>
    <i name="pawpsdc">   2896.42949358 </i>
    <i name="pawaedc">  -2898.95784282 </i>
    <i name="eentropy">     -0.00000006 </i>
    <i name="bandstr">   -305.33843784 </i>
    <i name="atom">   1025.20389953 </i>
    <i name="e_fr_energy">    -67.23053249 </i>
    <i name="e_wo_entrp">    -67.23053243 </i>
    <i name="e_0_energy">    -67.23053246 </i>
   </energy>
  </scstep>
  <scstep>
   <time name="dav">    2.19    2.19</time>
   <time name="total">    2.49    2.49</time>
   <energy>
    <i name="e_fr_energy">    -67.23052563 </i>
    <i name="e_wo_entrp">    -67.23052557 </i>
    <i name="e_0_energy">    -67.23052560 </i>
   </energy>
  </scstep>
  <scstep>
   <time name="dav">    2.37    2.37</time>
   <time name="total">    2.66    2.67</time>
   <energy>
    <i name="e_fr_energy">    -67.23052004 </i>
    <i name="e_wo_entrp">    -67.23051998 </i>
    <i name="e_0_energy">    -67.23052001 </i>
   </energy>
  </scstep>
  <scstep>
   <time name="dav">    2.64    2.65</time>
   <time name="total">    2.75    2.75</time>
   <energy>
    <i name="alphaZ">     14.60772810 </i>
    <i name="ewald">   2592.08377200 </i>
    <i name="hartreedc">  -3487.45284480 </i>
    <i name="XCdc">     96.02973113 </i>
    <i name="pawpsdc">   2895.91730215 </i>
    <i name="pawaedc">  -2898.44563548 </i>
    <i name="eentropy">     -0.00000007 </i>
    <i name="bandstr">   -305.17447298 </i>
    <i name="atom">   1025.20389953 </i>
    <i name="e_fr_energy">    -67.23052040 </i>
    <i name="e_wo_entrp">    -67.23052034 </i>
    <i name="e_0_energy">    -67.23052037 </i>
   </energy>
  </scstep>
  <structure>
   <crystal>
    <varray name="basis" >
     <v>       4.48037162       2.58674356       0.00000000 </v>
     <v>      -4.48037162       2.58674356      -0.00000000 </v>
     <v>      -0.00000000      -0.00000000      14.98105247 </v>
    </varray>
    <i name="volume">    347.24798582 </i>
    <varray name="rec_basis" >
     <v>       0.11159789       0.19329322       0.00000000 </v>
     <v>      -0.11159789       0.19329322       0.00000000 </v>
     <v>      -0.00000000      -0.00000000       0.06675098 </v>
    </varray>
   </crystal>
   <varray name="positions" >
    <v>       0.33333300       0.66666600       0.25000000 </v>
    <v>       0.66666600       0.33333300       0.25000000 </v>
    <v>       0.15867372       0.31734845       0.25000000 </v>
    <v>       0.31734845       0.15867372       0.25000000 </v>
    <v>       0.15867372       0.84132528       0.25000000 </v>
    <v>       0.84132528       0.15867372       0.25000000 </v>
    <v>       0.68265055       0.84132528       0.25000000 </v>
    <v>       0.84132528       0.68265055       0.25000000 </v>
   </varray>
  </structure>
  <varray name="forces" >
   <v>      -0.00000000       0.00000000       0.00000000 </v>
   <v>       0.00000000       0.00000000       0.00000000 </v>
   <v>      -0.00677368       0.01173235       0.00000000 </v>
   <v>       0.00677368       0.01173235       0.00000000 </v>
   <v>       0.01354736       0.00000000      -0.00000000 </v>
   <v>      -0.01354736       0.00000000       0.00000000 </v>
   <v>      -0.00677368      -0.01173235      -0.00000000 </v>
   <v>       0.00677368      -0.01173235      -0.00000000 </v>
  </varray>
  <varray name="stress" >
   <v>      -0.00670688       0.00000000      -0.00000000 </v>
   <v>       0.00000000      -0.00670688       0.00000000 </v>
   <v>       0.00000000       0.00000000      -0.75389886 </v>
  </varray>
  <energy>
   <i name="e_fr_energy">    -67.23052040 </i>
   <i name="e_wo_entrp">    -67.23052037 </i>
   <i name="e_0_energy">     -0.00000007 </i>
  </energy>
  <time name="totalsc">   12.86   12.95</time>
 </calculation>
 <calculation>
  <scstep>
   <time name="dav">    2.83    2.83</time>
   <time name="total">    3.13    3.14</time>
   <energy>
    <i name="alphaZ">     14.62091462 </i>
    <i name="ewald">   2587.98742079 </i>
    <i name="hartreedc">  -3484.31200302 </i>
    <i name="XCdc">     96.05724652 </i>
    <i name="pawpsdc">   2895.83011944 </i>
    <i name="pawaedc">  -2898.35833864 </i>
    <i name="eentropy">     -0.00000010 </i>
    <i name="bandstr">   -304.26016678 </i>
    <i name="atom">   1025.20389953 </i>
    <i name="e_fr_energy">    -67.23090765 </i>
    <i name="e_wo_entrp">    -67.23090754 </i>
    <i name="e_0_energy">    -67.23090760 </i>
   </energy>
  </scstep>
  <scstep>
   <time name="dav">    2.25    2.25</time>
   <time name="total">    2.55    2.56</time>
   <energy>
    <i name="e_fr_energy">    -67.23074743 </i>
    <i name="e_wo_entrp">    -67.23074735 </i>
    <i name="e_0_energy">    -67.23074739 </i>
   </energy>
  </scstep>
  <scstep>
   <time name="dav">    2.33    2.33</time>
   <time name="total">    2.63    2.63</time>
   <energy>
    <i name="e_fr_energy">    -67.23066793 </i>
    <i name="e_wo_entrp">    -67.23066786 </i>
    <i name="e_0_energy">    -67.23066790 </i>
   </energy>
  </scstep>
  <scstep>
   <time name="dav">    2.67    2.67</time>
   <time name="total">    2.77    2.78</time>
   <energy>
    <i name="alphaZ">     14.62091462 </i>
    <i name="ewald">   2587.98742079 </i>
    <i name="hartreedc">  -3483.64748658 </i>
    <i name="XCdc">     96.03232163 </i>
    <i name="pawpsdc">   2895.64248428 </i>
    <i name="pawaedc">  -2898.16981202 </i>
    <i name="eentropy">     -0.00000007 </i>
    <i name="bandstr">   -304.90040999 </i>
    <i name="atom">   1025.20389953 </i>
    <i name="e_fr_energy">    -67.23066781 </i>
    <i name="e_wo_entrp">    -67.23066774 </i>
    <i name="e_0_energy">    -67.23066777 </i>
   </energy>
  </scstep>
  <structure>
   <crystal>
    <varray name="basis" >
     <v>       4.48040625       2.58676356       0.00000000 </v>
     <v>      -4.48040625       2.58676356      -0.00000000 </v>
     <v>      -0.00000000      -0.00000000      14.96730977 </v>
    </varray>
    <i name="volume">    346.93480492 </i>
    <varray name="rec_basis" >
     <v>       0.11159702       0.19329173       0.00000000 </v>
     <v>      -0.11159702       0.19329173       0.00000000 </v>
     <v>      -0.00000000      -0.00000000       0.06681227 </v>
    </varray>
   </crystal>
   <varray name="positions" >
    <v>       0.33333300       0.66666600       0.25000000 </v>
    <v>       0.66666600       0.33333300       0.25000000 </v>
    <v>       0.15868020       0.31736140       0.25000000 </v>
    <v>       0.31736140       0.15868020       0.25000000 </v>
    <v>       0.15868020       0.84131880       0.25000000 </v>
    <v>       0.84131880       0.15868020       0.25000000 </v>
    <v>       0.68263760       0.84131880       0.25000000 </v>
    <v>       0.84131880       0.68263760       0.25000000 </v>
   </varray>
  </structure>
  <varray name="forces" >
   <v>      -0.00000000       0.00000000      -0.00000000 </v>
   <v>       0.00000000       0.00000000      -0.00000000 </v>
   <v>      -0.00500455       0.00866814      -0.00000000 </v>
   <v>       0.00500455       0.00866814       0.00000000 </v>
   <v>       0.01000910       0.00000000       0.00000000 </v>
   <v>      -0.01000910       0.00000000      -0.00000000 </v>
   <v>      -0.00500455      -0.00866814       0.00000000 </v>
   <v>       0.00500455      -0.00866814      -0.00000000 </v>
  </varray>
  <varray name="stress" >
   <v>       0.00209397       0.00000000      -0.00000000 </v>
   <v>       0.00000000       0.00209397       0.00000000 </v>
   <v>      -0.00000000      -0.00000000      -0.99181261 </v>
  </varray>
  <energy>
   <i name="e_fr_energy">    -67.23066781 </i>
   <i name="e_wo_entrp">    -67.23066777 </i>
   <i name="e_0_energy">     -0.00000007 </i>
  </energy>
  <time name="totalsc">   13.48   13.55</time>
 </calculation>
 <calculation>
  <scstep>
   <time name="dav">    2.40    2.41</time>
   <time name="total">    2.70    2.71</time>
   <energy>
    <i name="alphaZ">     14.66061989 </i>
    <i name="ewald">   2575.69918116 </i>
    <i name="hartreedc">  -3474.10307769 </i>
    <i name="XCdc">     96.11159697 </i>
    <i name="pawpsdc">   2895.40967280 </i>
    <i name="pawaedc">  -2897.93748845 </i>
    <i name="eentropy">     -0.00000023 </i>
    <i name="bandstr">   -302.27756868 </i>
    <i name="atom">   1025.20389953 </i>
    <i name="e_fr_energy">    -67.23316469 </i>
    <i name="e_wo_entrp">    -67.23316446 </i>
    <i name="e_0_energy">    -67.23316458 </i>
   </energy>
  </scstep>
  <scstep>
   <time name="dav">    2.21    2.21</time>
   <time name="total">    2.51    2.51</time>
   <energy>
    <i name="e_fr_energy">    -67.23170181 </i>
    <i name="e_wo_entrp">    -67.23170168 </i>
    <i name="e_0_energy">    -67.23170175 </i>
   </energy>
  </scstep>
  <scstep>
   <time name="dav">    2.57    2.57</time>
   <time name="total">    2.87    2.87</time>
   <energy>
    <i name="e_fr_energy">    -67.23099666 </i>
    <i name="e_wo_entrp">    -67.23099658 </i>
    <i name="e_0_energy">    -67.23099662 </i>
   </energy>
  </scstep>
  <scstep>
   <time name="dav">    2.23    2.23</time>
   <time name="total">    2.53    2.53</time>
   <energy>
    <i name="e_fr_energy">    -67.23102056 </i>
    <i name="e_wo_entrp">    -67.23102049 </i>
    <i name="e_0_energy">    -67.23102053 </i>
   </energy>
  </scstep>
  <scstep>
   <time name="dav">    2.35    2.36</time>
   <time name="total">    2.65    2.65</time>
   <energy>
    <i name="e_fr_energy">    -67.23103822 </i>
    <i name="e_wo_entrp">    -67.23103815 </i>
    <i name="e_0_energy">    -67.23103818 </i>
   </energy>
  </scstep>
  <scstep>
   <time name="dav">    2.19    2.19</time>
   <time name="total">    2.49    2.49</time>
   <energy>
    <i name="e_fr_energy">    -67.23111512 </i>
    <i name="e_wo_entrp">    -67.23111505 </i>
    <i name="e_0_energy">    -67.23111508 </i>
   </energy>
  </scstep>
  <scstep>
   <time name="dav">    2.57    2.58</time>
   <time name="total">    2.87    2.88</time>
   <energy>
    <i name="e_fr_energy">    -67.23113065 </i>
    <i name="e_wo_entrp">    -67.23113058 </i>
    <i name="e_0_energy">    -67.23113062 </i>
   </energy>
  </scstep>
  <scstep>
   <time name="dav">    2.29    2.30</time>
   <time name="total">    2.59    2.60</time>
   <energy>
    <i name="e_fr_energy">    -67.23115518 </i>
    <i name="e_wo_entrp">    -67.23115511 </i>
    <i name="e_0_energy">    -67.23115514 </i>
   </energy>
  </scstep>
  <scstep>
   <time name="dav">    2.35    2.35</time>
   <time name="total">    2.46    2.46</time>
   <energy>
    <i name="alphaZ">     14.66061989 </i>
    <i name="ewald">   2575.69918116 </i>
    <i name="hartreedc">  -3471.36632782 </i>
    <i name="XCdc">     96.02601917 </i>
    <i name="pawpsdc">   2894.42263296 </i>
    <i name="pawaedc">  -2896.95061628 </i>
    <i name="eentropy">     -0.00000007 </i>
    <i name="bandstr">   -304.92656434 </i>
    <i name="atom">   1025.20389953 </i>
    <i name="e_fr_energy">    -67.23115579 </i>
    <i name="e_wo_entrp">    -67.23115572 </i>
    <i name="e_0_energy">    -67.23115575 </i>
   </energy>
  </scstep>
  <structure>
   <crystal>
    <varray name="basis" >
     <v>       4.48051014       2.58682354       0.00000000 </v>
     <v>      -4.48051014       2.58682354      -0.00000000 </v>
     <v>      -0.00000000      -0.00000000      14.92608165 </v>
    </varray>
    <i name="volume">    345.99520336 </i>
    <varray name="rec_basis" >
     <v>       0.11159444       0.19328725       0.00000000 </v>
     <v>      -0.11159444       0.19328725       0.00000000 </v>
     <v>      -0.00000000      -0.00000000       0.06699682 </v>
    </varray>
   </crystal>
   <varray name="positions" >
    <v>       0.33333300       0.66666600       0.25000000 </v>
    <v>       0.66666600       0.33333300       0.25000000 </v>
    <v>       0.15869963       0.31740026       0.25000000 </v>
    <v>       0.31740026       0.15869963       0.25000000 </v>
    <v>       0.15869963       0.84129937       0.25000000 </v>
    <v>       0.84129937       0.15869963       0.25000000 </v>
    <v>       0.68259874       0.84129937       0.25000000 </v>
    <v>       0.84129937       0.68259874       0.25000000 </v>
   </varray>
  </structure>
  <varray name="forces" >
   <v>       0.00000000       0.00000000       0.00000000 </v>
   <v>       0.00000000       0.00000000       0.00000000 </v>
   <v>       0.00107266      -0.00185790       0.00000000 </v>
   <v>      -0.00107266      -0.00185790       0.00000000 </v>
   <v>      -0.00214532       0.00000000       0.00000000 </v>
   <v>       0.00214532       0.00000000      -0.00000000 </v>
   <v>       0.00107266       0.00185790      -0.00000000 </v>
   <v>      -0.00107266       0.00185790       0.00000000 </v>
  </varray>
  <varray name="stress" >
   <v>      -0.10274289       0.00000000      -0.00000000 </v>
   <v>       0.00000000      -0.10274287       0.00000000 </v>
   <v>       0.00000000      -0.00000000      -0.73003727 </v>
  </varray>
  <energy>
   <i name="e_fr_energy">    -67.23115579 </i>
   <i name="e_wo_entrp">    -67.23115575 </i>
   <i name="e_0_energy">     -0.00000007 </i>
  </energy>
  <time name="totalsc">   26.08   26.16</time>
 </calculation>
 <calculation>
  <scstep>
   <time name="dav">    2.68    2.68</time>
   <time name="total">    2.99    2.99</time>
   <energy>
    <i name="alphaZ">     14.74069227 </i>
    <i name="ewald">   2551.12637249 </i>
    <i name="hartreedc">  -3452.43418034 </i>
    <i name="XCdc">     96.18943506 </i>
    <i name="pawpsdc">   2894.10919204 </i>
    <i name="pawaedc">  -2896.63757836 </i>
    <i name="eentropy">     -0.00000078 </i>
    <i name="bandstr">   -299.53791808 </i>
    <i name="atom">   1025.20389953 </i>
    <i name="e_fr_energy">    -67.24008617 </i>
    <i name="e_wo_entrp">    -67.24008539 </i>
    <i name="e_0_energy">    -67.24008578 </i>
   </energy>
  </scstep>
  <scstep>
   <time name="dav">    2.35    2.35</time>
   <time name="total">    2.65    2.66</time>
   <energy>
    <i name="e_fr_energy">    -67.23432187 </i>
    <i name="e_wo_entrp">    -67.23432161 </i>
    <i name="e_0_energy">    -67.23432174 </i>
   </energy>
  </scstep>
  <scstep>
   <time name="dav">    2.65    2.65</time>
   <time name="total">    2.94    2.94</time>
   <energy>
    <i name="e_fr_energy">    -67.23169297 </i>
    <i name="e_wo_entrp">    -67.23169289 </i>
    <i name="e_0_energy">    -67.23169293 </i>
   </energy>
  </scstep>
  <scstep>
   <time name="dav">    2.53    2.53</time>
   <time name="total">    2.83    2.83</time>
   <energy>
    <i name="e_fr_energy">    -67.23169908 </i>
    <i name="e_wo_entrp">    -67.23169899 </i>
    <i name="e_0_energy">    -67.23169903 </i>
   </energy>
  </scstep>
  <scstep>
   <time name="dav">    2.35    2.35</time>
   <time name="total">    2.65    2.65</time>
   <energy>
    <i name="e_fr_energy">    -67.23172329 </i>
    <i name="e_wo_entrp">    -67.23172321 </i>
    <i name="e_0_energy">    -67.23172325 </i>
   </energy>
  </scstep>
  <scstep>
   <time name="dav">    2.27    2.27</time>
   <time name="total">    2.57    2.57</time>
   <energy>
    <i name="e_fr_energy">    -67.23188710 </i>
    <i name="e_wo_entrp">    -67.23188702 </i>
    <i name="e_0_energy">    -67.23188706 </i>
   </energy>
  </scstep>
  <scstep>
   <time name="dav">    2.64    2.64</time>
   <time name="total">    2.94    2.94</time>
   <energy>
    <i name="e_fr_energy">    -67.23192481 </i>
    <i name="e_wo_entrp">    -67.23192474 </i>
    <i name="e_0_energy">    -67.23192478 </i>
   </energy>
  </scstep>
  <scstep>
   <time name="dav">    2.33    2.34</time>
   <time name="total">    2.63    2.64</time>
   <energy>
    <i name="e_fr_energy">    -67.23197643 </i>
    <i name="e_wo_entrp">    -67.23197636 </i>
    <i name="e_0_energy">    -67.23197640 </i>
   </energy>
  </scstep>
  <scstep>
   <time name="dav">    2.65    2.66</time>
   <time name="total">    2.95    2.96</time>
   <energy>
    <i name="e_fr_energy">    -67.23197918 </i>
    <i name="e_wo_entrp">    -67.23197911 </i>
    <i name="e_0_energy">    -67.23197914 </i>
   </energy>
  </scstep>
  <scstep>
   <time name="dav">    2.39    2.39</time>
   <time name="total">    2.70    2.70</time>
   <energy>
    <i name="e_fr_energy">    -67.23197746 </i>
    <i name="e_wo_entrp">    -67.23197739 </i>
    <i name="e_0_energy">    -67.23197742 </i>
   </energy>
  </scstep>
  <scstep>
   <time name="dav">    2.20    2.21</time>
   <time name="total">    2.31    2.32</time>
   <energy>
    <i name="alphaZ">     14.74069227 </i>
    <i name="ewald">   2551.12637249 </i>
    <i name="hartreedc">  -3447.15163971 </i>
    <i name="XCdc">     96.02050688 </i>
    <i name="pawpsdc">   2891.87328423 </i>
    <i name="pawaedc">  -2894.40168144 </i>
    <i name="eentropy">     -0.00000007 </i>
    <i name="bandstr">   -304.64341162 </i>
[...]
     <v>      -0.00000000      -0.00000000       0.07002166 </v>
    </varray>
   </crystal>
   <varray name="positions" >
    <v>       0.33333300       0.66666600       0.25000000 </v>
    <v>       0.66666600       0.33333300       0.25000000 </v>
    <v>       0.15893183       0.31786467       0.25000000 </v>
    <v>       0.31786467       0.15893183       0.25000000 </v>
    <v>       0.15893183       0.84106717       0.25000000 </v>
    <v>       0.84106717       0.15893183       0.25000000 </v>
    <v>       0.68213433       0.84106717       0.25000000 </v>
    <v>       0.84106717       0.68213433       0.25000000 </v>
   </varray>
  </structure>
  <varray name="forces" >
   <v>      -0.00000000       0.00000000      -0.00000000 </v>
   <v>      -0.00000000       0.00000000      -0.00000000 </v>
   <v>       0.06819922      -0.11812450       0.00000000 </v>
   <v>      -0.06819922      -0.11812450       0.00000000 </v>
   <v>      -0.13639844       0.00000000      -0.00000000 </v>
   <v>       0.13639844       0.00000000       0.00000000 </v>
   <v>       0.06819922       0.11812450      -0.00000000 </v>
   <v>      -0.06819922       0.11812450      -0.00000000 </v>
  </varray>
  <varray name="stress" >
   <v>      -1.04108502       0.00000000       0.00000000 </v>
   <v>       0.00000000      -1.04108486      -0.00000000 </v>
   <v>       0.00000000      -0.00000000      -0.31371614 </v>
  </varray>
  <energy>
   <i name="e_fr_energy">    -67.23504293 </i>
   <i name="e_wo_entrp">    -67.23504289 </i>
   <i name="e_0_energy">     -0.00000009 </i>
  </energy>
  <time name="totalsc">   26.14   26.19</time>
 </calculation>
 <calculation>
  <scstep>
   <time name="dav">    2.55    2.55</time>
   <time name="total">    2.86    2.86</time>
   <energy>
    <i name="alphaZ">     15.39909932 </i>
    <i name="ewald">   2364.18023769 </i>
    <i name="hartreedc">  -3268.04937973 </i>
    <i name="XCdc">     96.16055413 </i>
    <i name="pawpsdc">   2879.25251855 </i>
    <i name="pawaedc">  -2881.78223784 </i>
    <i name="eentropy">     -0.00000073 </i>
    <i name="bandstr">   -297.60714520 </i>
    <i name="atom">   1025.20389953 </i>
    <i name="e_fr_energy">    -67.24245426 </i>
    <i name="e_wo_entrp">    -67.24245354 </i>
    <i name="e_0_energy">    -67.24245390 </i>
   </energy>
  </scstep>
  <scstep>
   <time name="dav">    2.37    2.37</time>
   <time name="total">    2.67    2.67</time>
   <energy>
    <i name="e_fr_energy">    -67.23770632 </i>
    <i name="e_wo_entrp">    -67.23770605 </i>
    <i name="e_0_energy">    -67.23770618 </i>
   </energy>
  </scstep>
  <scstep>
   <time name="dav">    2.65    2.65</time>
   <time name="total">    2.95    2.95</time>
   <energy>
    <i name="e_fr_energy">    -67.23543015 </i>
    <i name="e_wo_entrp">    -67.23543005 </i>
    <i name="e_0_energy">    -67.23543010 </i>
   </energy>
  </scstep>
  <scstep>
   <time name="dav">    2.25    2.25</time>
   <time name="total">    2.55    2.56</time>
   <energy>
    <i name="e_fr_energy">    -67.23547042 </i>
    <i name="e_wo_entrp">    -67.23547033 </i>
    <i name="e_0_energy">    -67.23547038 </i>
   </energy>
  </scstep>
  <scstep>
   <time name="dav">    2.23    2.23</time>
   <time name="total">    2.53    2.53</time>
   <energy>
    <i name="e_fr_energy">    -67.23549830 </i>
    <i name="e_wo_entrp">    -67.23549821 </i>
    <i name="e_0_energy">    -67.23549826 </i>
   </energy>
  </scstep>
  <scstep>
   <time name="dav">    2.31    2.31</time>
   <time name="total">    2.61    2.61</time>
   <energy>
    <i name="e_fr_energy">    -67.23563542 </i>
    <i name="e_wo_entrp">    -67.23563533 </i>
    <i name="e_0_energy">    -67.23563538 </i>
   </energy>
  </scstep>
  <scstep>
   <time name="dav">    2.49    2.50</time>
   <time name="total">    2.80    2.80</time>
   <energy>
    <i name="e_fr_energy">    -67.23567536 </i>
    <i name="e_wo_entrp">    -67.23567527 </i>
    <i name="e_0_energy">    -67.23567531 </i>
   </energy>
  </scstep>
  <scstep>
   <time name="dav">    2.26    2.26</time>
   <time name="total">    2.56    2.56</time>
   <energy>
    <i name="e_fr_energy">    -67.23571382 </i>
    <i name="e_wo_entrp">    -67.23571373 </i>
    <i name="e_0_energy">    -67.23571378 </i>
   </energy>
  </scstep>
  <scstep>
   <time name="dav">    2.45    2.45</time>
   <time name="total">    2.55    2.55</time>
   <energy>
    <i name="alphaZ">     15.39909932 </i>
    <i name="ewald">   2364.18023769 </i>
    <i name="hartreedc">  -3263.27237792 </i>
    <i name="XCdc">     96.00500744 </i>
    <i name="pawpsdc">   2880.85307489 </i>
    <i name="pawaedc">  -2883.38349227 </i>
    <i name="eentropy">     -0.00000008 </i>
    <i name="bandstr">   -302.22116275 </i>
    <i name="atom">   1025.20389953 </i>
    <i name="e_fr_energy">    -67.23571416 </i>
    <i name="e_wo_entrp">    -67.23571408 </i>
    <i name="e_0_energy">    -67.23571412 </i>
   </energy>
  </scstep>
  <structure>
   <crystal>
    <varray name="basis" >
     <v>       4.48094015       2.58707181       0.00000000 </v>
     <v>      -4.48094015       2.58707181      -0.00000000 </v>
     <v>      -0.00000000       0.00000000      14.20755904 </v>
    </varray>
    <i name="volume">    329.40265233 </i>
    <varray name="rec_basis" >
     <v>       0.11158373       0.19326870       0.00000000 </v>
     <v>      -0.11158373       0.19326870      -0.00000000 </v>
     <v>      -0.00000000      -0.00000000       0.07038507 </v>
    </varray>
   </crystal>
   <varray name="positions" >
    <v>       0.33333300       0.66666600       0.25000000 </v>
    <v>       0.66666600       0.33333300       0.25000000 </v>
    <v>       0.15888847       0.31777794       0.25000000 </v>
    <v>       0.31777794       0.15888847       0.25000000 </v>
    <v>       0.15888847       0.84111053       0.25000000 </v>
    <v>       0.84111053       0.15888847       0.25000000 </v>
    <v>       0.68222106       0.84111053       0.25000000 </v>
    <v>       0.84111053       0.68222106       0.25000000 </v>
   </varray>
  </structure>
  <varray name="forces" >
   <v>       0.00000000      -0.00000000      -0.00000000 </v>
   <v>       0.00000000      -0.00000000      -0.00000000 </v>
   <v>       0.05491531      -0.09511610      -0.00000000 </v>
   <v>      -0.05491531      -0.09511610       0.00000000 </v>
   <v>      -0.10983062      -0.00000000       0.00000000 </v>
   <v>       0.10983062      -0.00000000      -0.00000000 </v>
   <v>       0.05491531       0.09511610       0.00000000 </v>
   <v>      -0.05491531       0.09511610      -0.00000000 </v>
  </varray>
  <varray name="stress" >
   <v>      -0.63786907       0.00000000      -0.00000000 </v>
   <v>       0.00000000      -0.63786897      -0.00000000 </v>
   <v>       0.00000000      -0.00000000      -0.27063876 </v>
  </varray>
  <energy>
   <i name="e_fr_energy">    -67.23571416 </i>
   <i name="e_wo_entrp">    -67.23571412 </i>
   <i name="e_0_energy">     -0.00000008 </i>
  </energy>
  <time name="totalsc">   26.49   26.51</time>
 </calculation>
 <calculation>
  <scstep>
   <time name="dav">    2.45    2.46</time>
   <time name="total">    2.76    2.76</time>
   <energy>
    <i name="alphaZ">     15.56804522 </i>
    <i name="ewald">   2322.80894063 </i>
    <i name="hartreedc">  -3232.30451049 </i>
    <i name="XCdc">     96.34051153 </i>
    <i name="pawpsdc">   2880.32180880 </i>
    <i name="pawaedc">  -2882.85295820 </i>
    <i name="eentropy">     -0.00000492 </i>
    <i name="bandstr">   -292.34971333 </i>
    <i name="atom">   1025.20389953 </i>
    <i name="e_fr_energy">    -67.26398124 </i>
    <i name="e_wo_entrp">    -67.26397632 </i>
    <i name="e_0_energy">    -67.26397878 </i>
   </energy>
  </scstep>
  <scstep>
   <time name="dav">    2.29    2.29</time>
   <time name="total">    2.59    2.59</time>
   <energy>
    <i name="e_fr_energy">    -67.24488407 </i>
    <i name="e_wo_entrp">    -67.24488328 </i>
    <i name="e_0_energy">    -67.24488367 </i>
   </energy>
  </scstep>
  <scstep>
   <time name="dav">    2.72    2.72</time>
   <time name="total">    3.02    3.02</time>
   <energy>
    <i name="e_fr_energy">    -67.23608873 </i>
    <i name="e_wo_entrp">    -67.23608864 </i>
    <i name="e_0_energy">    -67.23608868 </i>
   </energy>
  </scstep>
  <scstep>
   <time name="dav">    2.32    2.32</time>
   <time name="total">    2.61    2.62</time>
   <energy>
    <i name="e_fr_energy">    -67.23615059 </i>
    <i name="e_wo_entrp">    -67.23615048 </i>
    <i name="e_0_energy">    -67.23615053 </i>
   </energy>
  </scstep>
  <scstep>
   <time name="dav">    2.35    2.35</time>
   <time name="total">    2.65    2.65</time>
   <energy>
    <i name="e_fr_energy">    -67.23618882 </i>
    <i name="e_wo_entrp">    -67.23618873 </i>
    <i name="e_0_energy">    -67.23618877 </i>
   </energy>
  </scstep>
  <scstep>
   <time name="dav">    2.29    2.29</time>
   <time name="total">    2.59    2.59</time>
   <energy>
    <i name="e_fr_energy">    -67.23654465 </i>
    <i name="e_wo_entrp">    -67.23654456 </i>
    <i name="e_0_energy">    -67.23654461 </i>
   </energy>
  </scstep>
  <scstep>
   <time name="dav">    2.47    2.48</time>
   <time name="total">    2.78    2.78</time>
   <energy>
    <i name="e_fr_energy">    -67.23664413 </i>
    <i name="e_wo_entrp">    -67.23664404 </i>
    <i name="e_0_energy">    -67.23664409 </i>
   </energy>
  </scstep>
  <scstep>
   <time name="dav">    2.25    2.26</time>
   <time name="total">    2.55    2.56</time>
   <energy>
    <i name="e_fr_energy">    -67.23671490 </i>
    <i name="e_wo_entrp">    -67.23671482 </i>
    <i name="e_0_energy">    -67.23671486 </i>
   </energy>
  </scstep>
  <scstep>
   <time name="dav">    2.61    2.61</time>
   <time name="total">    2.91    2.92</time>
   <energy>
    <i name="e_fr_energy">    -67.23671050 </i>
    <i name="e_wo_entrp">    -67.23671042 </i>
    <i name="e_0_energy">    -67.23671046 </i>
   </energy>
  </scstep>
  <scstep>
   <time name="dav">    2.35    2.35</time>
   <time name="total">    2.66    2.66</time>
   <energy>
    <i name="e_fr_energy">    -67.23670820 </i>
    <i name="e_wo_entrp">    -67.23670811 </i>
    <i name="e_0_energy">    -67.23670815 </i>
   </energy>
  </scstep>
  <scstep>
   <time name="dav">    2.39    2.40</time>
   <time name="total">    2.50    2.51</time>
   <energy>
    <i name="alphaZ">     15.56804522 </i>
    <i name="ewald">   2322.80894063 </i>
    <i name="hartreedc">  -3222.65408492 </i>
    <i name="XCdc">     96.02787360 </i>
    <i name="pawpsdc">   2882.94785500 </i>
    <i name="pawaedc">  -2885.48110456 </i>
    <i name="eentropy">     -0.00000008 </i>
    <i name="bandstr">   -301.65813359 </i>
    <i name="atom">   1025.20389953 </i>
    <i name="e_fr_energy">    -67.23670918 </i>
    <i name="e_wo_entrp">    -67.23670910 </i>
    <i name="e_0_energy">    -67.23670914 </i>
   </energy>
  </scstep>
  <structure>
   <crystal>
    <varray name="basis" >
     <v>       4.47987111       2.58645459       0.00000000 </v>
     <v>      -4.47987111       2.58645459      -0.00000000 </v>
     <v>      -0.00000000       0.00000000      14.06008528 </v>
    </varray>
    <i name="volume">    325.82794371 </i>
    <varray name="rec_basis" >
     <v>       0.11161035       0.19331482       0.00000000 </v>
     <v>      -0.11161035       0.19331482      -0.00000000 </v>
     <v>      -0.00000000      -0.00000000       0.07112332 </v>
    </varray>
   </crystal>
   <varray name="positions" >
    <v>       0.33333300       0.66666600       0.25000000 </v>
    <v>       0.66666600       0.33333300       0.25000000 </v>
    <v>       0.15880173       0.31760447       0.25000000 </v>
    <v>       0.31760447       0.15880173       0.25000000 </v>
    <v>       0.15880173       0.84119727       0.25000000 </v>
    <v>       0.84119727       0.15880173       0.25000000 </v>
    <v>       0.68239453       0.84119727       0.25000000 </v>
    <v>       0.84119727       0.68239453       0.25000000 </v>
   </varray>
  </structure>
  <varray name="forces" >
   <v>       0.00000000       0.00000000       0.00000000 </v>
   <v>       0.00000000       0.00000000       0.00000000 </v>
   <v>       0.02763871      -0.04787165      -0.00000000 </v>
   <v>      -0.02763871      -0.04787165      -0.00000000 </v>
   <v>      -0.05527743       0.00000000       0.00000000 </v>
   <v>       0.05527743       0.00000000      -0.00000000 </v>
   <v>       0.02763871       0.04787165       0.00000000 </v>
   <v>      -0.02763871       0.04787165       0.00000000 </v>
  </varray>
  <varray name="stress" >
   <v>       0.15263950       0.00000000       0.00000000 </v>
   <v>       0.00000000       0.15263948       0.00000000 </v>
   <v>       0.00000000       0.00000000      -0.29720779 </v>
  </varray>
  <energy>
   <i name="e_fr_energy">    -67.23670918 </i>
   <i name="e_wo_entrp">    -67.23670914 </i>
   <i name="e_0_energy">     -0.00000008 </i>
  </energy>
  <time name="totalsc">   32.01   32.07</time>
 </calculation>
 <calculation>
  <scstep>
   <time name="dav">    2.39    2.39</time>
   <time name="total">    2.70    2.70</time>
   <energy>
    <i name="alphaZ">     15.91681339 </i>
    <i name="ewald">   2239.95188445 </i>
    <i name="hartreedc">  -3160.83523008 </i>
    <i name="XCdc">     96.70755316 </i>
    <i name="pawpsdc">   2883.17823921 </i>
    <i name="pawaedc">  -2885.71126405 </i>
    <i name="eentropy">     -0.00011646 </i>
    <i name="bandstr">   -281.76089011 </i>
    <i name="atom">   1025.20389953 </i>
    <i name="e_fr_energy">    -67.34911095 </i>
    <i name="e_wo_entrp">    -67.34899449 </i>
    <i name="e_0_energy">    -67.34905272 </i>
   </energy>
  </scstep>
  <scstep>
   <time name="dav">    2.27    2.27</time>
   <time name="total">    2.57    2.57</time>
   <energy>
    <i name="e_fr_energy">    -67.27113090 </i>
    <i name="e_wo_entrp">    -67.27112516 </i>
    <i name="e_0_energy">    -67.27112803 </i>
   </energy>
  </scstep>
  <scstep>
   <time name="dav">    2.77    2.77</time>
   <time name="total">    3.07    3.07</time>
   <energy>
    <i name="e_fr_energy">    -67.23665566 </i>
    <i name="e_wo_entrp">    -67.23665555 </i>
    <i name="e_0_energy">    -67.23665560 </i>
   </energy>
  </scstep>
  <scstep>
   <time name="dav">    2.29    2.29</time>
   <time name="total">    2.59    2.59</time>
   <energy>
    <i name="e_fr_energy">    -67.23661474 </i>
    <i name="e_wo_entrp">    -67.23661460 </i>
    <i name="e_0_energy">    -67.23661467 </i>
   </energy>
  </scstep>
  <scstep>
   <time name="dav">    2.49    2.49</time>
   <time name="total">    2.79    2.79</time>
   <energy>
    <i name="e_fr_energy">    -67.23648035 </i>
    <i name="e_wo_entrp">    -67.23648027 </i>
    <i name="e_0_energy">    -67.23648031 </i>
   </energy>
  </scstep>
  <scstep>
   <time name="dav">    2.21    2.21</time>
   <time name="total">    2.51    2.51</time>
   <energy>
    <i name="e_fr_energy">    -67.23727160 </i>
    <i name="e_wo_entrp">    -67.23727152 </i>
    <i name="e_0_energy">    -67.23727156 </i>
   </energy>
  </scstep>
  <scstep>
   <time name="dav">    2.47    2.47</time>
   <time name="total">    2.77    2.77</time>
   <energy>
    <i name="e_fr_energy">    -67.23745304 </i>
    <i name="e_wo_entrp">    -67.23745296 </i>
    <i name="e_0_energy">    -67.23745300 </i>
   </energy>
  </scstep>
  <scstep>
   <time name="dav">    2.25    2.25</time>
   <time name="total">    2.55    2.55</time>
   <energy>
    <i name="e_fr_energy">    -67.23753232 </i>
    <i name="e_wo_entrp">    -67.23753225 </i>
    <i name="e_0_energy">    -67.23753228 </i>
   </energy>
  </scstep>
  <scstep>
   <time name="dav">    2.57    2.57</time>
   <time name="total">    2.87    2.87</time>
   <energy>
    <i name="e_fr_energy">    -67.23750336 </i>
    <i name="e_wo_entrp">    -67.23750328 </i>
    <i name="e_0_energy">    -67.23750332 </i>
   </energy>
  </scstep>
  <scstep>
   <time name="dav">    2.29    2.29</time>
   <time name="total">    2.60    2.60</time>
   <energy>
    <i name="e_fr_energy">    -67.23749809 </i>
    <i name="e_wo_entrp">    -67.23749802 </i>
    <i name="e_0_energy">    -67.23749805 </i>
   </energy>
  </scstep>
  <scstep>
   <time name="dav">    2.41    2.41</time>
   <time name="total">    2.72    2.72</time>
   <energy>
    <i name="e_fr_energy">    -67.23750546 </i>
    <i name="e_wo_entrp">    -67.23750539 </i>
    <i name="e_0_energy">    -67.23750543 </i>
   </energy>
  </scstep>
  <scstep>
   <time name="dav">    2.16    2.16</time>
   <time name="total">    2.47    2.47</time>
   <energy>
    <i name="e_fr_energy">    -67.23751806 </i>
    <i name="e_wo_entrp">    -67.23751798 </i>
    <i name="e_0_energy">    -67.23751802 </i>
   </energy>
  </scstep>
  <scstep>
   <time name="dav">    1.98    1.98</time>
   <time name="total">    2.28    2.28</time>
   <energy>
    <i name="e_fr_energy">    -67.23752093 </i>
    <i name="e_wo_entrp">    -67.23752086 </i>
    <i name="e_0_energy">    -67.23752090 </i>
   </energy>
  </scstep>
  <scstep>
   <time name="dav">    2.17    2.17</time>
   <time name="total">    2.28    2.28</time>
   <energy>
    <i name="alphaZ">     15.91681339 </i>
    <i name="ewald">   2239.95188445 </i>
    <i name="hartreedc">  -3141.37337842 </i>
    <i name="XCdc">     96.07196277 </i>
    <i name="pawpsdc">   2888.36982439 </i>
    <i name="pawaedc">  -2890.90734631 </i>
    <i name="eentropy">     -0.00000007 </i>
    <i name="bandstr">   -300.47118138 </i>
    <i name="atom">   1025.20389953 </i>
    <i name="e_fr_energy">    -67.23752167 </i>
    <i name="e_wo_entrp">    -67.23752159 </i>
    <i name="e_0_energy">    -67.23752163 </i>
   </energy>
  </scstep>
  <structure>
   <crystal>
    <varray name="basis" >
     <v>       4.47773302       2.58522016       0.00000000 </v>
     <v>      -4.47773302       2.58522016      -0.00000000 </v>
     <v>      -0.00000000       0.00000000      13.76513775 </v>
    </varray>
    <i name="volume">    318.68842312 </i>
    <varray name="rec_basis" >
     <v>       0.11166365       0.19340713      -0.00000000 </v>
     <v>      -0.11166365       0.19340713      -0.00000000 </v>
     <v>      -0.00000000      -0.00000000       0.07264729 </v>
    </varray>
   </crystal>
   <varray name="positions" >
    <v>       0.33333300       0.66666600       0.25000000 </v>
    <v>       0.66666600       0.33333300       0.25000000 </v>
    <v>       0.15862822       0.31725744       0.25000000 </v>
    <v>       0.31725744       0.15862822       0.25000000 </v>
    <v>       0.15862822       0.84137078       0.25000000 </v>
    <v>       0.84137078       0.15862822       0.25000000 </v>
    <v>       0.68274156       0.84137078       0.25000000 </v>
    <v>       0.84137078       0.68274156       0.25000000 </v>
   </varray>
  </structure>
  <varray name="forces" >
   <v>      -0.00000000       0.00000000       0.00000000 </v>
   <v>      -0.00000000       0.00000000       0.00000000 </v>
   <v>      -0.02627038       0.04550164       0.00000000 </v>
   <v>       0.02627038       0.04550164       0.00000000 </v>
   <v>       0.05254077       0.00000000      -0.00000000 </v>
   <v>      -0.05254077       0.00000000       0.00000000 </v>
   <v>      -0.02627038      -0.04550164      -0.00000000 </v>
   <v>       0.02627038      -0.04550164      -0.00000000 </v>
  </varray>
  <varray name="stress" >
   <v>       1.83442103       0.00000000      -0.00000000 </v>
   <v>       0.00000000       1.83442075       0.00000000 </v>
   <v>       0.00000000       0.00000000      -0.21824393 </v>
  </varray>
  <energy>
   <i name="e_fr_energy">    -67.23752167 </i>
   <i name="e_wo_entrp">    -67.23752163 </i>
   <i name="e_0_energy">     -0.00000007 </i>
  </energy>
  <time name="totalsc">   39.16   39.20</time>
 </calculation>
 <calculation>
  <scstep>
