 running on   12 total cores
 distrk:  each k-point on   12 cores,    1 groups
 distr:  one band on    1 cores,   12 groups
 using from now: INCAR     
 vasp.5.4.4.18Apr17-6-g9f103f2a35 (build Mar 30 2023 15:39:25) complex          
  
 POSCAR found type information on POSCAR  B  C 
 POSCAR found :  2 types and       8 ions
 scaLAPACK will be used

 ----------------------------------------------------------------------------- 
|                                                                             |
|           W    W    AA    RRRRR   N    N  II  N    N   GGGG   !!!           |
|           W    W   A  A   R    R  NN   N  II  NN   N  G    G  !!!           |
|           W    W  A    A  R    R  N N  N  II  N N  N  G       !!!           |
|           W WW W  AAAAAA  RRRRR   N  N N  II  N  N N  G  GGG   !            |
|           WW  WW  A    A  R   R   N   NN  II  N   NN  G    G                |
|           W    W  A    A  R    R  N    N  II  N    N   GGGG   !!!           |
|                                                                             |
|      For optimal performance we recommend to set                            |
|        NCORE= 4 - approx SQRT( number of cores)                             |
|      NCORE specifies how many cores store one orbital (NPAR=cpu/NCORE).     |
|      This setting can  greatly improve the performance of VASP for DFT.     |
|      The default,   NCORE=1            might be grossly inefficient         |
|      on modern multi-core architectures or massively parallel machines.     |
|      Do your own testing !!!!                                               |
|      Unfortunately you need to use the default for GW and RPA calculations. |
|      (for HF NCORE is supported but not extensively tested yet)             |
|                                                                             |
 ----------------------------------------------------------------------------- 

 LDA part: xc-table for Pade appr. of Perdew
 POSCAR, INCAR and KPOINTS ok, starting setup
 FFT: planning ...
 WAVECAR not read
 entering main loop
       N       E                     dE             d eps       ncg     rms          rms(c)
DAV:   1     0.213966852723E+03    0.21397E+03   -0.10525E+04   912   0.827E+02
DAV:   2    -0.410803504416E+02   -0.25505E+03   -0.23925E+03  1344   0.197E+02
DAV:   3    -0.714628743221E+02   -0.30383E+02   -0.30136E+02  1236   0.820E+01
DAV:   4    -0.721165878051E+02   -0.65371E+00   -0.65228E+00  1236   0.149E+01
DAV:   5    -0.721383369656E+02   -0.21749E-01   -0.21696E-01  1272   0.244E+00    0.128E+01
DAV:   6    -0.680760434092E+02    0.40623E+01   -0.34362E+00  1200   0.851E+00    0.735E+00
DAV:   7    -0.663482405406E+02    0.17278E+01   -0.48412E+00  1344   0.995E+00    0.165E+00
DAV:   8    -0.663116371316E+02    0.36603E-01   -0.13547E-01  1344   0.180E+00    0.243E-01
DAV:   9    -0.663020303716E+02    0.96068E-02   -0.65455E-03  1176   0.389E-01    0.163E-01
DAV:  10    -0.662935936664E+02    0.84367E-02   -0.95665E-03  1068   0.334E-01    0.757E-02
DAV:  11    -0.662918615700E+02    0.17321E-02   -0.31828E-03   996   0.219E-01    0.578E-02
DAV:  12    -0.662922083893E+02   -0.34682E-03   -0.60709E-04   936   0.967E-02    0.330E-02
DAV:  13    -0.662941819799E+02   -0.19736E-02   -0.23512E-04  1128   0.628E-02    0.212E-02
DAV:  14    -0.662966582099E+02   -0.24762E-02   -0.47462E-04   984   0.670E-02    0.174E-02
DAV:  15    -0.662972376083E+02   -0.57940E-03   -0.61684E-05  1104   0.304E-02    0.935E-03
DAV:  16    -0.662975306277E+02   -0.29302E-03   -0.25423E-05   948   0.185E-02    0.183E-03
DAV:  17    -0.662975558735E+02   -0.25246E-04   -0.11450E-06  1104   0.442E-03    0.109E-03
DAV:  18    -0.662975691078E+02   -0.13234E-04   -0.38630E-07   720   0.231E-03    0.218E-04
DAV:  19    -0.662975698330E+02   -0.72523E-06   -0.29667E-08   900   0.699E-04
   1 F= -.66297570E+02 E0= -.66297502E+02  d E =-.662976E+02
 curvature:   0.00 expect dE= 0.000E+00 dE for cont linesearch  0.000E+00
 trial: gam= 0.00000 g(F)=  0.533E+01 g(S)=  0.293E-01 ort = 0.000E+00 (trialstep = 0.100E+01)
 search vector abs. value=  0.536E+01
 bond charge predicted
       N       E                     dE             d eps       ncg     rms          rms(c)
DAV:   1    -0.638323127204E+02    0.24653E+01   -0.74778E+02   912   0.158E+02    0.102E+01
DAV:   2    -0.632773215461E+02    0.55499E+00   -0.20650E+01  1272   0.307E+01    0.427E+00
DAV:   3    -0.629821496705E+02    0.29517E+00   -0.26966E+00  1068   0.874E+00    0.182E+00
DAV:   4    -0.629681255609E+02    0.14024E-01   -0.15421E-01  1188   0.234E+00    0.853E-01
DAV:   5    -0.629639150993E+02    0.42105E-02   -0.15375E-02  1128   0.689E-01    0.139E-01
DAV:   6    -0.629641110521E+02   -0.19595E-03   -0.93850E-04   948   0.178E-01    0.638E-02
DAV:   7    -0.629642405684E+02   -0.12952E-03   -0.18162E-04   936   0.859E-02    0.133E-02
DAV:   8    -0.629643264561E+02   -0.85888E-04   -0.25493E-05  1056   0.254E-02    0.919E-03
DAV:   9    -0.629644920746E+02   -0.16562E-03   -0.63639E-05   936   0.284E-02    0.699E-03
DAV:  10    -0.629645457316E+02   -0.53657E-04   -0.10151E-05  1080   0.111E-02    0.335E-03
DAV:  11    -0.629645806081E+02   -0.34876E-04   -0.38094E-06  1104   0.824E-03    0.251E-03
DAV:  12    -0.629646456824E+02   -0.65074E-04   -0.33134E-06  1020   0.704E-03    0.132E-03
DAV:  13    -0.629646580958E+02   -0.12413E-04   -0.36928E-07   852   0.270E-03    0.675E-04
DAV:  14    -0.629646708128E+02   -0.12717E-04   -0.64009E-07   888   0.245E-03    0.361E-04
DAV:  15    -0.629646722484E+02   -0.14356E-05   -0.49561E-08   732   0.105E-03    0.251E-04
DAV:  16    -0.629646727077E+02   -0.45930E-06   -0.17133E-08   720   0.540E-04
   2 F= -.62964673E+02 E0= -.62964673E+02  d E =0.333290E+01
 trial-energy change:    3.332897  1 .order    4.358666   -5.355612   14.072944
 step:   0.3475(harm=  0.2757)  dis= 0.07191  next Energy=   -67.271101 (dE=-0.974E+00)
 bond charge predicted
       N       E                     dE             d eps       ncg     rms          rms(c)
DAV:   1    -0.677641089092E+02   -0.47994E+01   -0.34732E+02   912   0.114E+02    0.503E+00
DAV:   2    -0.673089401125E+02    0.45517E+00   -0.73279E+00  1236   0.166E+01    0.326E+00
DAV:   3    -0.672313644019E+02    0.77576E-01   -0.95439E-01  1092   0.566E+00    0.179E+00
DAV:   4    -0.672288197124E+02    0.25447E-02   -0.15295E-01  1188   0.183E+00    0.633E-01
DAV:   5    -0.672258298487E+02    0.29899E-02   -0.28703E-02  1152   0.101E+00    0.138E-01
DAV:   6    -0.672258262885E+02    0.35603E-05   -0.38846E-03  1152   0.372E-01    0.736E-02
DAV:   7    -0.672259805420E+02   -0.15425E-03   -0.49069E-04  1188   0.119E-01    0.348E-02
DAV:   8    -0.672260398729E+02   -0.59331E-04   -0.25423E-04  1116   0.771E-02    0.147E-02
DAV:   9    -0.672261774002E+02   -0.13753E-03   -0.54083E-05   996   0.321E-02    0.962E-03
DAV:  10    -0.672262089425E+02   -0.31542E-04   -0.11997E-05  1092   0.135E-02    0.710E-03
DAV:  11    -0.672262146480E+02   -0.57055E-05   -0.10272E-05  1032   0.100E-02    0.231E-03
DAV:  12    -0.672262132882E+02    0.13598E-05   -0.64795E-07  1044   0.297E-03    0.169E-03
DAV:  13    -0.672262139635E+02   -0.67528E-06   -0.20443E-07   888   0.202E-03
   3 F= -.67226214E+02 E0= -.67226214E+02  d E =-.928644E+00
 curvature:  -0.14 expect dE=-0.330E-02 dE for cont linesearch -0.416E-04
 ZBRENT: interpolating
 opt :   0.3449  next Energy=   -67.226266 (dE=-0.929E+00)
 bond charge predicted
       N       E                     dE             d eps       ncg     rms          rms(c)
DAV:   1    -0.672262726366E+02   -0.59348E-04   -0.54651E-03   960   0.444E-01    0.207E-02
DAV:   2    -0.672262652835E+02    0.73531E-05   -0.93090E-05   996   0.624E-02    0.107E-02
DAV:   3    -0.672262643699E+02    0.91363E-06   -0.18568E-05  1248   0.242E-02    0.431E-03
DAV:   4    -0.672262645195E+02   -0.14959E-06   -0.27405E-06  1104   0.826E-03
   4 F= -.67226265E+02 E0= -.67226264E+02  d E =-.928695E+00
 curvature:  -0.17 expect dE=-0.394E-02 dE for cont linesearch -0.482E-06
 trial: gam= 0.00354 g(F)=  0.161E-03 g(S)=  0.227E-01 ort = 0.387E-02 (trialstep = 0.869E+00)
 search vector abs. value=  0.229E-01
 bond charge predicted
       N       E                     dE             d eps       ncg     rms          rms(c)
DAV:   1    -0.672280693617E+02   -0.18050E-02   -0.49788E-01  1044   0.457E+00    0.449E-01
DAV:   2    -0.672242996878E+02    0.37697E-02   -0.80203E-03  1008   0.530E-01    0.271E-01
DAV:   3    -0.672224014349E+02    0.18983E-02   -0.47350E-03  1236   0.320E-01    0.522E-02
DAV:   4    -0.672222863642E+02    0.11507E-03   -0.75522E-04  1140   0.136E-01    0.224E-02
DAV:   5    -0.672222839658E+02    0.23984E-05   -0.65261E-05  1104   0.410E-02    0.970E-03
DAV:   6    -0.672223409082E+02   -0.56942E-04   -0.60981E-06   996   0.106E-02    0.406E-03
DAV:   7    -0.672223984760E+02   -0.57568E-04   -0.10412E-05  1008   0.112E-02    0.257E-03
DAV:   8    -0.672224359096E+02   -0.37434E-04   -0.82566E-06  1044   0.808E-03    0.117E-03
DAV:   9    -0.672224427609E+02   -0.68513E-05   -0.14123E-06  1224   0.402E-03    0.725E-04
DAV:  10    -0.672224429130E+02   -0.15213E-06   -0.65762E-07   960   0.255E-03
   5 F= -.67222443E+02 E0= -.67222443E+02  d E =0.382161E-02
 trial-energy change:    0.003822  1 .order    0.003658   -0.019868    0.027185
 step:   0.3625(harm=  0.3669)  dis= 0.00068  next Energy=   -67.230397 (dE=-0.413E-02)
 bond charge predicted
       N       E                     dE             d eps       ncg     rms          rms(c)
DAV:   1    -0.672322321674E+02   -0.97894E-02   -0.16949E-01  1092   0.268E+00    0.262E-01
DAV:   2    -0.672309767965E+02    0.12554E-02   -0.27578E-03  1284   0.308E-01    0.158E-01
DAV:   3    -0.672303698540E+02    0.60694E-03   -0.15222E-03  1056   0.184E-01    0.294E-02
DAV:   4    -0.672303242438E+02    0.45610E-04   -0.23740E-04  1248   0.772E-02    0.125E-02
DAV:   5    -0.672303174976E+02    0.67462E-05   -0.20803E-05  1116   0.230E-02    0.562E-03
DAV:   6    -0.672303265006E+02   -0.90030E-05   -0.11231E-06   816   0.525E-03    0.227E-03
DAV:   7    -0.672303386597E+02   -0.12159E-04   -0.22574E-06   924   0.580E-03    0.153E-03
DAV:   8    -0.672303552942E+02   -0.16635E-04   -0.22195E-06   936   0.472E-03    0.739E-04
DAV:   9    -0.672303581405E+02   -0.28463E-05   -0.62767E-08   984   0.122E-03    0.413E-04
DAV:  10    -0.672303635548E+02   -0.54142E-05   -0.26133E-07   888   0.148E-03    0.277E-04
DAV:  11    -0.672303672591E+02   -0.37044E-05   -0.68140E-08   864   0.880E-04    0.148E-04
DAV:  12    -0.672303684448E+02   -0.11857E-05   -0.22844E-08   900   0.438E-04    0.860E-05
DAV:  13    -0.672303700219E+02   -0.15771E-05   -0.43280E-08   684   0.582E-04    0.807E-05
DAV:  14    -0.672303700740E+02   -0.52098E-07   -0.30351E-09   840   0.219E-04
   6 F= -.67230370E+02 E0= -.67230370E+02  d E =-.410555E-02
 curvature:  -0.18 expect dE=-0.122E-03 dE for cont linesearch -0.323E-08
 trial: gam= 0.03586 g(F)=  0.452E-03 g(S)=  0.211E-03 ort = 0.201E-04 (trialstep = 0.768E+00)
 search vector abs. value=  0.693E-03
 bond charge predicted
       N       E                     dE             d eps       ncg     rms          rms(c)
DAV:   1    -0.672305960499E+02   -0.22603E-03   -0.47919E-02   912   0.130E+00    0.611E-02
DAV:   2    -0.672305160235E+02    0.80026E-04   -0.86569E-04   924   0.177E-01    0.391E-02
DAV:   3    -0.672304415421E+02    0.74481E-04   -0.17711E-04  1140   0.706E-02    0.115E-02
DAV:   4    -0.672304339650E+02    0.75770E-05   -0.24204E-05  1164   0.249E-02    0.486E-03
DAV:   5    -0.672304336541E+02    0.31098E-06   -0.33737E-06  1056   0.842E-03
   7 F= -.67230434E+02 E0= -.67230434E+02  d E =-.635801E-04
 trial-energy change:   -0.000064  1 .order   -0.000084   -0.000509    0.000340
 step:   0.4323(harm=  0.4601)  dis= 0.00085  next Energy=   -67.230510 (dE=-0.140E-03)
 bond charge predicted
       N       E                     dE             d eps       ncg     rms          rms(c)
DAV:   1    -0.672305324899E+02   -0.98525E-04   -0.90776E-03   960   0.567E-01    0.265E-02
DAV:   2    -0.672305256327E+02    0.68572E-05   -0.16300E-04   936   0.764E-02    0.169E-02
DAV:   3    -0.672305200416E+02    0.55911E-05   -0.31848E-05  1044   0.300E-02    0.506E-03
DAV:   4    -0.672305204007E+02   -0.35909E-06   -0.43517E-06  1212   0.106E-02
   8 F= -.67230520E+02 E0= -.67230520E+02  d E =-.150327E-03
 curvature:  -0.24 expect dE=-0.511E-04 dE for cont linesearch -0.173E-06
 trial: gam= 0.28936 g(F)=  0.531E-04 g(S)=  0.161E-03 ort = 0.224E-04 (trialstep = 0.701E+00)
 search vector abs. value=  0.285E-03
 bond charge predicted
       N       E                     dE             d eps       ncg     rms          rms(c)
DAV:   1    -0.672309076457E+02   -0.38760E-03   -0.79882E-03  1308   0.476E-01    0.588E-02
DAV:   2    -0.672307474294E+02    0.16022E-03   -0.19180E-04   972   0.707E-02    0.306E-02
DAV:   3    -0.672306679316E+02    0.79498E-04   -0.17499E-04  1020   0.593E-02    0.870E-03
DAV:   4    -0.672306678056E+02    0.12608E-06   -0.65816E-06  1224   0.135E-02
   9 F= -.67230668E+02 E0= -.67230668E+02  d E =-.147405E-03
 ZBRENT: can't locate minimum, use default step
 trial-energy change:   -0.000147  1 .order   -0.000178   -0.000155   -0.000201
 step:   2.8025(harm=  2.8025)  dis= 0.00023  next Energy=   -67.231506 (dE=-0.986E-03)
 bond charge predicted
       N       E                     dE             d eps       ncg     rms          rms(c)
DAV:   1    -0.672331646928E+02   -0.24968E-02   -0.70441E-02  1056   0.142E+00    0.173E-01
DAV:   2    -0.672317018122E+02    0.14629E-02   -0.16381E-03   948   0.213E-01    0.911E-02
DAV:   3    -0.672309966564E+02    0.70516E-03   -0.17293E-03  1164   0.185E-01    0.281E-02
DAV:   4    -0.672310205647E+02   -0.23908E-04   -0.70904E-05   960   0.442E-02    0.136E-02
DAV:   5    -0.672310382172E+02   -0.17652E-04   -0.29718E-05  1032   0.239E-02    0.719E-03
DAV:   6    -0.672311151151E+02   -0.76898E-04   -0.18977E-05   936   0.193E-02    0.752E-03
DAV:   7    -0.672311306527E+02   -0.15538E-04   -0.31210E-06  1164   0.749E-03    0.386E-03
DAV:   8    -0.672311551754E+02   -0.24523E-04   -0.11045E-05   996   0.115E-02    0.352E-03
DAV:   9    -0.672311557880E+02   -0.61264E-06   -0.31377E-07  1020   0.271E-03
  10 F= -.67231156E+02 E0= -.67231156E+02  d E =-.635387E-03
 curvature:  -2.81 expect dE=-0.442E-03 dE for cont linesearch -0.414E-03
 ZBRENT: increasing intervall
 opt :   7.0062  next Energy=   -67.231675 (dE=-0.115E-02)
 bond charge predicted
       N       E                     dE             d eps       ncg     rms          rms(c)
DAV:   1    -0.672400861709E+02   -0.89310E-02   -0.28800E-01  1224   0.287E+00    0.353E-01
DAV:   2    -0.672343218675E+02    0.57643E-02   -0.69237E-03  1032   0.427E-01    0.184E-01
DAV:   3    -0.672316929740E+02    0.26289E-02   -0.64793E-03  1212   0.360E-01    0.534E-02
DAV:   4    -0.672316990772E+02   -0.61032E-05   -0.26773E-04  1128   0.851E-02    0.249E-02
DAV:   5    -0.672317232879E+02   -0.24211E-04   -0.10812E-04  1032   0.458E-02    0.133E-02
DAV:   6    -0.672318870984E+02   -0.16381E-03   -0.47143E-05   984   0.308E-02    0.117E-02
DAV:   7    -0.672319248116E+02   -0.37713E-04   -0.66653E-06  1176   0.104E-02    0.664E-03
DAV:   8    -0.672319764314E+02   -0.51620E-04   -0.25846E-05  1020   0.170E-02    0.446E-03
DAV:   9    -0.672319791761E+02   -0.27447E-05   -0.12732E-06  1212   0.463E-03    0.296E-03
DAV:  10    -0.672319774569E+02    0.17192E-05   -0.26769E-06  1056   0.732E-03    0.258E-03
DAV:  11    -0.672319774286E+02    0.28263E-07   -0.58376E-07   936   0.352E-03
  11 F= -.67231977E+02 E0= -.67231977E+02  d E =-.145703E-02
 curvature:  -3.53 expect dE=-0.125E-02 dE for cont linesearch -0.414E-03
 ZBRENT: increasing intervall
 opt :  15.4136  next Energy=   -67.233331 (dE=-0.281E-02)
 bond charge predicted
       N       E                     dE             d eps       ncg     rms          rms(c)
DAV:   1    -0.672658687409E+02   -0.33891E-01   -0.11682E+00  1068   0.580E+00    0.708E-01
DAV:   2    -0.672428184404E+02    0.23050E-01   -0.26783E-02  1008   0.860E-01    0.371E-01
DAV:   3    -0.672325598896E+02    0.10259E-01   -0.27627E-02  1212   0.741E-01    0.112E-01
DAV:   4    -0.672326059524E+02   -0.46063E-04   -0.11757E-03  1116   0.178E-01    0.526E-02
DAV:   5    -0.672326149535E+02   -0.90011E-05   -0.43867E-04  1044   0.932E-02    0.286E-02
DAV:   6    -0.672330474289E+02   -0.43248E-03   -0.21720E-04  1008   0.699E-02    0.261E-02
DAV:   7    -0.672331240536E+02   -0.76625E-04   -0.33447E-05  1140   0.255E-02    0.134E-02
DAV:   8    -0.672332361808E+02   -0.11213E-03   -0.10902E-04   996   0.378E-02    0.117E-02
DAV:   9    -0.672332354757E+02    0.70506E-06   -0.38920E-06  1200   0.954E-03
  12 F= -.67233235E+02 E0= -.67233235E+02  d E =-.271507E-02
 curvature: -11.54 expect dE=-0.202E-01 dE for cont linesearch -0.301E-03
 ZBRENT: increasing intervall
 opt :  32.2285  next Energy=   -67.233063 (dE=-0.254E-02)
 bond charge predicted
       N       E                     dE             d eps       ncg     rms          rms(c)
DAV:   1    -0.673687621700E+02   -0.13553E+00   -0.48434E+00  1068   0.119E+01    0.145E+00
DAV:   2    -0.672742741451E+02    0.94488E-01   -0.10977E-01   996   0.174E+00    0.755E-01
DAV:   3    -0.672338053355E+02    0.40469E-01   -0.11190E-01  1248   0.150E+00    0.226E-01
DAV:   4    -0.672335407365E+02    0.26460E-03   -0.51476E-03  1116   0.367E-01    0.104E-01
DAV:   5    -0.672331781555E+02    0.36258E-03   -0.17758E-03  1056   0.190E-01    0.581E-02
DAV:   6    -0.672341114906E+02   -0.93334E-03   -0.79347E-04  1044   0.137E-01    0.495E-02
DAV:   7    -0.672342196188E+02   -0.10813E-03   -0.12877E-04  1116   0.504E-02    0.239E-02
DAV:   8    -0.672343491782E+02   -0.12956E-03   -0.32554E-04   996   0.670E-02    0.219E-02
DAV:   9    -0.672343264026E+02    0.22776E-04   -0.15420E-05  1200   0.192E-02    0.990E-03
DAV:  10    -0.672342970754E+02    0.29327E-04   -0.38641E-05  1080   0.285E-02    0.970E-03
DAV:  11    -0.672343092971E+02   -0.12222E-04   -0.61589E-06  1056   0.115E-02    0.438E-03
DAV:  12    -0.672343182411E+02   -0.89440E-05   -0.26443E-06   960   0.759E-03    0.114E-03
DAV:  13    -0.672343298691E+02   -0.11628E-04   -0.87176E-07   900   0.317E-03    0.749E-04
DAV:  14    -0.672343309288E+02   -0.10597E-05   -0.43861E-08   984   0.911E-04    0.289E-04
DAV:  15    -0.672343316017E+02   -0.67291E-06   -0.43656E-08   792   0.784E-04
  13 F= -.67234332E+02 E0= -.67234332E+02  d E =-.381120E-02
 curvature:   6.62 expect dE= 0.565E-01 dE for cont linesearch  0.378E-05
 trial: gam=42.39946 g(F)=  0.746E-02 g(S)=  0.107E-02 ort = 0.128E-04 (trialstep = 0.383E-02)
 search vector abs. value=  0.522E+00
 bond charge predicted
       N       E                     dE             d eps       ncg     rms          rms(c)
DAV:   1    -0.672343776168E+02   -0.46688E-04   -0.41238E-04  1044   0.109E-01    0.133E-02
DAV:   2    -0.672343691178E+02    0.84990E-05   -0.90158E-06   960   0.154E-02    0.698E-03
DAV:   3    -0.672343643488E+02    0.47690E-05   -0.93561E-06  1044   0.135E-02    0.193E-03
DAV:   4    -0.672343643433E+02    0.54436E-08   -0.27982E-07   900   0.291E-03
  14 F= -.67234364E+02 E0= -.67234364E+02  d E =-.327416E-04
 ZBRENT: can't locate minimum, use default step
 trial-energy change:   -0.000033  1 .order   -0.000035   -0.000035   -0.000036
 step:   0.0153(harm=  0.0153)  dis= 0.00006  next Energy=   -67.234483 (dE=-0.152E-03)
 bond charge predicted
       N       E                     dE             d eps       ncg     rms          rms(c)
DAV:   1    -0.672345714516E+02   -0.20710E-03   -0.36805E-03   960   0.325E-01    0.396E-02
DAV:   2    -0.672344935016E+02    0.77950E-04   -0.79543E-05   948   0.463E-02    0.208E-02
DAV:   3    -0.672344517227E+02    0.41779E-04   -0.87728E-05  1188   0.413E-02    0.601E-03
DAV:   4    -0.672344536843E+02   -0.19616E-05   -0.29061E-06   924   0.901E-03    0.280E-03
DAV:   5    -0.672344553914E+02   -0.17070E-05   -0.12708E-06   744   0.513E-03    0.144E-03
DAV:   6    -0.672344620802E+02   -0.66888E-05   -0.79379E-07   828   0.390E-03    0.135E-03
DAV:   7    -0.672344650488E+02   -0.29686E-05   -0.23240E-07   936   0.167E-03    0.823E-04
DAV:   8    -0.672344679463E+02   -0.28975E-05   -0.59428E-07   912   0.275E-03    0.768E-04
DAV:   9    -0.672344682295E+02   -0.28325E-06   -0.82174E-08   936   0.121E-03
  15 F= -.67234468E+02 E0= -.67234468E+02  d E =-.136628E-03
 curvature:  -0.67 expect dE=-0.541E-02 dE for cont linesearch -0.100E-03
 ZBRENT: increasing intervall
 opt :   0.0383  next Energy=   -67.234655 (dE=-0.323E-03)
 bond charge predicted
       N       E                     dE             d eps       ncg     rms          rms(c)
DAV:   1    -0.672350832795E+02   -0.61533E-03   -0.14903E-02  1128   0.653E-01    0.800E-02
DAV:   2    -0.672347859274E+02    0.29735E-03   -0.32402E-04   960   0.922E-02    0.419E-02
DAV:   3    -0.672346314900E+02    0.15444E-03   -0.33296E-04  1092   0.809E-02    0.115E-02
DAV:   4    -0.672346348205E+02   -0.33305E-05   -0.10875E-05   936   0.175E-02    0.522E-03
DAV:   5    -0.672346370420E+02   -0.22214E-05   -0.49206E-06   948   0.973E-03    0.277E-03
DAV:   6    -0.672346526209E+02   -0.15579E-04   -0.19867E-06   960   0.610E-03    0.248E-03
DAV:   7    -0.672346588624E+02   -0.62415E-05   -0.45928E-07   924   0.230E-03    0.163E-03
DAV:   8    -0.672346665044E+02   -0.76421E-05   -0.22887E-06  1104   0.509E-03    0.163E-03
DAV:   9    -0.672346671107E+02   -0.60622E-06   -0.38007E-07   936   0.275E-03
  16 F= -.67234667E+02 E0= -.67234667E+02  d E =-.335509E-03
 curvature:  -1.26 expect dE=-0.917E-02 dE for cont linesearch -0.177E-03
 ZBRENT: increasing intervall
 opt :   0.0842  next Energy=   -67.235051 (dE=-0.719E-03)
 bond charge predicted
       N       E                     dE             d eps       ncg     rms          rms(c)
DAV:   1    -0.672367121978E+02   -0.20457E-02   -0.59793E-02  1116   0.131E+00    0.160E-01
DAV:   2    -0.672355324532E+02    0.11797E-02   -0.12973E-03  1008   0.185E-01    0.839E-02
DAV:   3    -0.672349400496E+02    0.59240E-03   -0.13349E-03  1188   0.162E-01    0.231E-02
DAV:   4    -0.672349502437E+02   -0.10194E-04   -0.45116E-05   948   0.353E-02    0.104E-02
DAV:   5    -0.672349581449E+02   -0.79012E-05   -0.19433E-05   948   0.193E-02    0.569E-03
DAV:   6    -0.672350072139E+02   -0.49069E-04   -0.88750E-06   996   0.130E-02    0.502E-03
DAV:   7    -0.672350229332E+02   -0.15719E-04   -0.18183E-06  1104   0.464E-03    0.317E-03
DAV:   8    -0.672350421206E+02   -0.19187E-04   -0.70833E-06   984   0.907E-03    0.283E-03
DAV:   9    -0.672350429348E+02   -0.81423E-06   -0.36286E-07   996   0.272E-03
  17 F= -.67235043E+02 E0= -.67235043E+02  d E =-.711333E-03
 curvature:  -2.72 expect dE=-0.162E-01 dE for cont linesearch -0.305E-03
 ZBRENT: increasing intervall
 opt :   0.1760  next Energy=   -67.235660 (dE=-0.133E-02)
 bond charge predicted
       N       E                     dE             d eps       ncg     rms          rms(c)
DAV:   1    -0.672424542637E+02   -0.74121E-02   -0.24154E-01  1152   0.263E+00    0.323E-01
DAV:   2    -0.672377063191E+02    0.47479E-02   -0.52783E-03  1044   0.371E-01    0.169E-01
DAV:   3    -0.672354301466E+02    0.22762E-02   -0.52890E-03  1212   0.323E-01    0.457E-02
DAV:   4    -0.672354704243E+02   -0.40278E-04   -0.18045E-04   972   0.705E-02    0.204E-02
DAV:   5    -0.672354983006E+02   -0.27876E-04   -0.77945E-05   960   0.388E-02    0.112E-02
DAV:   6    -0.672356354206E+02   -0.13712E-03   -0.34174E-05  1008   0.255E-02    0.959E-03
DAV:   7    -0.672356753571E+02   -0.39937E-04   -0.65265E-06  1116   0.884E-03    0.613E-03
DAV:   8    -0.672357138175E+02   -0.38460E-04   -0.21947E-05   972   0.163E-02    0.515E-03
DAV:   9    -0.672357141594E+02   -0.34195E-06   -0.12789E-06  1080   0.509E-03
  18 F= -.67235714E+02 E0= -.67235714E+02  d E =-.138256E-02
 curvature:  -5.51 expect dE=-0.205E-01 dE for cont linesearch -0.411E-03
 ZBRENT: increasing intervall
 opt :   0.3596  next Energy=   -67.236602 (dE=-0.227E-02)
 bond charge predicted
       N       E                     dE             d eps       ncg     rms          rms(c)
DAV:   1    -0.672639812440E+02   -0.28267E-01   -0.98152E-01  1092   0.532E+00    0.651E-01
DAV:   2    -0.672448840696E+02    0.19097E-01   -0.20968E-02   996   0.750E-01    0.340E-01
DAV:   3    -0.672360887339E+02    0.87953E-02   -0.21875E-02  1248   0.657E-01    0.937E-02
DAV:   4    -0.672361505881E+02   -0.61854E-04   -0.77464E-04  1008   0.145E-01    0.416E-02
DAV:   5    -0.672361888175E+02   -0.38229E-04   -0.31905E-04  1032   0.793E-02    0.234E-02
DAV:   6    -0.672365446494E+02   -0.35583E-03   -0.13937E-04   996   0.542E-02    0.201E-02
DAV:   7    -0.672366441281E+02   -0.99479E-04   -0.26396E-05  1104   0.191E-02    0.126E-02
DAV:   8    -0.672367149011E+02   -0.70773E-04   -0.83063E-05   972   0.337E-02    0.113E-02
DAV:   9    -0.672367105037E+02    0.43973E-05   -0.49241E-06  1188   0.104E-02    0.507E-03
DAV:  10    -0.672367081958E+02    0.23079E-05   -0.11323E-05  1032   0.153E-02    0.714E-03
DAV:  11    -0.672367091791E+02   -0.98328E-06   -0.27460E-06  1056   0.758E-03
  19 F= -.67236709E+02 E0= -.67236709E+02  d E =-.237758E-02
 curvature: -11.89 expect dE=-0.109E-01 dE for cont linesearch -0.504E-03
 ZBRENT: increasing intervall
 opt :   0.7269  next Energy=   -67.237873 (dE=-0.354E-02)
 bond charge predicted
       N       E                     dE             d eps       ncg     rms          rms(c)
DAV:   1    -0.673491109496E+02   -0.11240E+00   -0.40512E+00  1056   0.109E+01    0.133E+00
DAV:   2    -0.672711308952E+02    0.77980E-01   -0.87441E-02   984   0.152E+00    0.689E-01
DAV:   3    -0.672366556582E+02    0.34475E-01   -0.87782E-02  1284   0.132E+00    0.189E-01
DAV:   4    -0.672366147438E+02    0.40914E-04   -0.33459E-03   996   0.298E-01    0.815E-02
DAV:   5    -0.672364803507E+02    0.13439E-03   -0.12550E-03  1116   0.160E-01    0.472E-02
DAV:   6    -0.672372716025E+02   -0.79125E-03   -0.50336E-04   948   0.107E-01    0.378E-02
DAV:   7    -0.672374530400E+02   -0.18144E-03   -0.88181E-05  1104   0.361E-02    0.238E-02
DAV:   8    -0.672375323162E+02   -0.79276E-04   -0.24973E-04   972   0.600E-02    0.201E-02
DAV:   9    -0.672375033567E+02    0.28960E-04   -0.17433E-05  1164   0.199E-02    0.782E-03
DAV:  10    -0.672374980926E+02    0.52640E-05   -0.31035E-05   996   0.255E-02    0.123E-02
DAV:  11    -0.672375054625E+02   -0.73698E-05   -0.10903E-05  1068   0.151E-02    0.180E-03
DAV:  12    -0.672375180572E+02   -0.12595E-04   -0.11565E-06   912   0.498E-03    0.140E-03
DAV:  13    -0.672375209335E+02   -0.28763E-05   -0.23861E-07   792   0.186E-03    0.745E-04
DAV:  14    -0.672375216655E+02   -0.73205E-06   -0.11175E-07   912   0.149E-03
  20 F= -.67237522E+02 E0= -.67237522E+02  d E =-.319006E-02
 curvature: -27.43 expect dE=-0.663E-01 dE for cont linesearch -0.114E-05
 trial: gam= 0.71832 g(F)=  0.799E-03 g(S)=  0.162E-02 ort = 0.147E-03 (trialstep = 0.148E+00)
 search vector abs. value=  0.272E+00
 bond charge predicted
       N       E                     dE             d eps       ncg     rms          rms(c)
DAV:   1    -0.672473084922E+02   -0.97876E-02   -0.33837E-01  1020   0.312E+00    0.378E-01
DAV:   2    -0.672406855613E+02    0.66229E-02   -0.71967E-03   972   0.443E-01    0.199E-01
DAV:   3    -0.672375136735E+02    0.31719E-02   -0.78419E-03  1224   0.395E-01    0.590E-02
DAV:   4    -0.672375710845E+02   -0.57411E-04   -0.32827E-04   960   0.938E-02    0.259E-02
DAV:   5    -0.672375935350E+02   -0.22451E-04   -0.12142E-04  1116   0.492E-02    0.152E-02
DAV:   6    -0.672377799728E+02   -0.18644E-03   -0.67813E-05   984   0.385E-02    0.149E-02
DAV:   7    -0.672378218201E+02   -0.41847E-04   -0.13502E-05  1104   0.157E-02    0.698E-03
DAV:   8    -0.672378698876E+02   -0.48067E-04   -0.39860E-05   972   0.234E-02    0.854E-03
DAV:   9    -0.672378697799E+02    0.10767E-06   -0.21827E-06  1044   0.709E-03
  21 F= -.67237870E+02 E0= -.67237870E+02  d E =-.348114E-03
 trial-energy change:   -0.000348  1 .order   -0.000316   -0.000374   -0.000257
 step:   0.2380(harm=  0.4753)  dis= 0.00012  next Energy=   -67.237954 (dE=-0.433E-03)
 bond charge predicted
       N       E                     dE             d eps       ncg     rms          rms(c)
DAV:   1    -0.672415840126E+02   -0.37141E-02   -0.12505E-01  1164   0.189E+00    0.232E-01
DAV:   2    -0.672391277523E+02    0.24563E-02   -0.27704E-03  1056   0.270E-01    0.121E-01
DAV:   3    -0.672379191683E+02    0.12086E-02   -0.27411E-03  1176   0.234E-01    0.342E-02
DAV:   4    -0.672379256752E+02   -0.65069E-05   -0.10912E-04  1080   0.546E-02    0.148E-02
DAV:   5    -0.672379342234E+02   -0.85482E-05   -0.44043E-05  1032   0.294E-02    0.847E-03
DAV:   6    -0.672380165863E+02   -0.82363E-04   -0.20263E-05   996   0.204E-02    0.832E-03
DAV:   7    -0.672380375596E+02   -0.20973E-04   -0.37085E-06  1164   0.771E-03    0.419E-03
DAV:   8    -0.672380630792E+02   -0.25520E-04   -0.12492E-05   972   0.122E-02    0.405E-03
DAV:   9    -0.672380639046E+02   -0.82538E-06   -0.57617E-07   972   0.355E-03
  22 F= -.67238064E+02 E0= -.67238064E+02  d E =-.542239E-03
 curvature: -12.12 expect dE=-0.180E-01 dE for cont linesearch -0.147E-03
 ZBRENT: increasing intervall
 opt :   0.4170  next Energy=   -67.238404 (dE=-0.882E-03)
 bond charge predicted
       N       E                     dE             d eps       ncg     rms          rms(c)
DAV:   1    -0.672524653298E+02   -0.14402E-01   -0.50308E-01  1044   0.381E+00    0.462E-01
DAV:   2    -0.672426532399E+02    0.98121E-02   -0.10693E-02   996   0.541E-01    0.244E-01
DAV:   3    -0.672379865382E+02    0.46667E-02   -0.11596E-02  1176   0.481E-01    0.715E-02
DAV:   4    -0.672380529588E+02   -0.66421E-04   -0.49411E-04  1080   0.115E-01    0.311E-02
DAV:   5    -0.672380677883E+02   -0.14830E-04   -0.18262E-04  1008   0.603E-02    0.185E-02
DAV:   6    -0.672383129867E+02   -0.24520E-03   -0.97618E-05   960   0.465E-02    0.180E-02
DAV:   7    -0.672383625860E+02   -0.49599E-04   -0.19005E-05  1116   0.186E-02    0.840E-03
DAV:   8    -0.672384167437E+02   -0.54158E-04   -0.55062E-05   972   0.276E-02    0.102E-02
DAV:   9    -0.672384157556E+02    0.98808E-06   -0.32713E-06  1212   0.855E-03
  23 F= -.67238416E+02 E0= -.67238416E+02  d E =-.894090E-03
 curvature: -28.04 expect dE=-0.296E-01 dE for cont linesearch -0.157E-03
 ZBRENT: increasing intervall
 opt :   0.7751  next Energy=   -67.238649 (dE=-0.113E-02)
 bond charge predicted
       N       E                     dE             d eps       ncg     rms          rms(c)
DAV:   1    -0.672961109498E+02   -0.57694E-01   -0.20563E+00  1020   0.772E+00    0.936E-01
DAV:   2    -0.672563612136E+02    0.39750E-01   -0.43117E-02   996   0.109E+00    0.492E-01
DAV:   3    -0.672382375783E+02    0.18124E-01   -0.46730E-02  1212   0.969E-01    0.145E-01
DAV:   4    -0.672383112352E+02   -0.73657E-04   -0.21153E-03  1068   0.235E-01    0.614E-02
DAV:   5    -0.672382584788E+02    0.52756E-04   -0.74247E-04  1056   0.123E-01    0.375E-02
DAV:   6    -0.672388380466E+02   -0.57957E-03   -0.36591E-04   960   0.924E-02    0.346E-02
DAV:   7    -0.672389308734E+02   -0.92827E-04   -0.74952E-05  1140   0.375E-02    0.156E-02
DAV:   8    -0.672390036965E+02   -0.72823E-04   -0.17301E-04   924   0.500E-02    0.189E-02
DAV:   9    -0.672389938898E+02    0.98068E-05   -0.14563E-05  1200   0.178E-02    0.604E-03
DAV:  10    -0.672389864051E+02    0.74847E-05   -0.19965E-05  1008   0.205E-02    0.804E-03
DAV:  11    -0.672389935999E+02   -0.71948E-05   -0.36569E-06  1020   0.879E-03    0.340E-03
DAV:  12    -0.672389972996E+02   -0.36996E-05   -0.13388E-06   804   0.559E-03    0.623E-04
DAV:  13    -0.672390004233E+02   -0.31237E-05   -0.31599E-07   720   0.230E-03    0.432E-04
DAV:  14    -0.672390005934E+02   -0.17011E-06   -0.23688E-08   876   0.769E-04
  24 F= -.67239001E+02 E0= -.67239001E+02  d E =-.147893E-02
 curvature: -41.74 expect dE=-0.433E-01 dE for cont linesearch -0.291E-03
 ZBRENT: increasing intervall
 opt :   1.4914  next Energy=   -67.240088 (dE=-0.257E-02)
 bond charge predicted
       N       E                     dE             d eps       ncg     rms          rms(c)
DAV:   1    -0.674752531842E+02   -0.23625E+00   -0.85982E+00   996   0.159E+01    0.192E+00
DAV:   2    -0.673112855446E+02    0.16397E+00   -0.18030E-01   936   0.222E+00    0.100E+00
DAV:   3    -0.672399141972E+02    0.71371E-01   -0.19007E-01  1248   0.195E+00    0.293E-01
DAV:   4    -0.672393408837E+02    0.57331E-03   -0.94071E-03  1056   0.486E-01    0.121E-01
DAV:   5    -0.672386348673E+02    0.70602E-03   -0.29708E-03  1116   0.251E-01    0.754E-02
DAV:   6    -0.672397240012E+02   -0.10891E-02   -0.13043E-03   948   0.179E-01    0.637E-02
DAV:   7    -0.672398366351E+02   -0.11263E-03   -0.28376E-04  1056   0.732E-02    0.278E-02
DAV:   8    -0.672398054788E+02    0.31156E-04   -0.49707E-04   960   0.856E-02    0.327E-02
DAV:   9    -0.672397505188E+02    0.54960E-04   -0.73434E-05  1188   0.393E-02    0.566E-03
DAV:  10    -0.672397320394E+02    0.18479E-04   -0.31218E-05  1020   0.264E-02    0.128E-02
DAV:  11    -0.672397580114E+02   -0.25972E-04   -0.14063E-05  1008   0.168E-02    0.325E-03
DAV:  12    -0.672397702896E+02   -0.12278E-04   -0.26605E-06  1020   0.784E-03    0.230E-03
DAV:  13    -0.672397756806E+02   -0.53909E-05   -0.84846E-07   816   0.368E-03    0.410E-04
DAV:  14    -0.672397760213E+02   -0.34073E-06   -0.95553E-08   924   0.150E-03
  25 F= -.67239776E+02 E0= -.67239776E+02  d E =-.225436E-02
 curvature: ****** expect dE=-0.628E+00 dE for cont linesearch -0.255E-03
 ZBRENT: increasing intervall
 opt :   2.9238  next Energy=   -67.239715 (dE=-0.219E-02)
 bond charge predicted
       N       E                     dE             d eps       ncg     rms          rms(c)
DAV:   1    -0.682665286842E+02   -0.10268E+01   -0.37791E+01  1008   0.337E+01    0.428E+00
DAV:   2    -0.675215823915E+02    0.74495E+00   -0.86623E-01   948   0.482E+00    0.200E+00
DAV:   3    -0.672592901114E+02    0.26229E+00   -0.59428E-01  1164   0.345E+00    0.551E-01
DAV:   4    -0.672442894585E+02    0.15001E-01   -0.29771E-02  1128   0.852E-01    0.244E-01
DAV:   5    -0.672420734653E+02    0.22160E-02   -0.47980E-03  1152   0.345E-01    0.110E-01
DAV:   6    -0.672415870103E+02    0.48645E-03   -0.38114E-03   936   0.274E-01    0.920E-02
DAV:   7    -0.672409978218E+02    0.58919E-03   -0.57149E-04   960   0.106E-01    0.263E-02
DAV:   8    -0.672402138177E+02    0.78400E-03   -0.43838E-04   996   0.688E-02    0.346E-02
DAV:   9    -0.672400011924E+02    0.21263E-03   -0.10090E-04  1008   0.491E-02    0.127E-02
DAV:  10    -0.672400184141E+02   -0.17222E-04   -0.12312E-05  1032   0.171E-02    0.606E-03
DAV:  11    -0.672400835226E+02   -0.65108E-04   -0.69109E-06   948   0.111E-02    0.202E-03
DAV:  12    -0.672401064827E+02   -0.22960E-04   -0.24930E-06  1068   0.565E-03    0.465E-04
DAV:  13    -0.672401078131E+02   -0.13304E-05   -0.75182E-08   840   0.103E-03    0.217E-04
DAV:  14    -0.672401084924E+02   -0.67928E-06   -0.73520E-08   720   0.766E-04
  26 F= -.67240108E+02 E0= -.67240108E+02  d E =-.258683E-02
 curvature:  37.60 expect dE= 0.837E+00 dE for cont linesearch  0.748E-04
 ZBRENT: bracketing found
 ZBRENT: interpolating
 opt :   2.1724  next Energy=   -67.240003 (dE=-0.248E-02)
 bond charge predicted
       N       E                     dE             d eps       ncg     rms          rms(c)
DAV:   1    -0.675427521520E+02   -0.30264E+00   -0.10630E+01  1056   0.173E+01    0.209E+00
DAV:   2    -0.673409605345E+02    0.20179E+00   -0.25898E-01  1032   0.259E+00    0.113E+00
DAV:   3    -0.672467246560E+02    0.94236E-01   -0.26987E-01  1200   0.230E+00    0.342E-01
DAV:   4    -0.672434442226E+02    0.32804E-02   -0.10221E-02  1008   0.526E-01    0.158E-01
DAV:   5    -0.672399415928E+02    0.35026E-02   -0.40097E-03  1140   0.281E-01    0.905E-02
DAV:   6    -0.672383675715E+02    0.15740E-02   -0.17519E-03  1056   0.221E-01    0.108E-01
DAV:   7    -0.672384546879E+02   -0.87116E-04   -0.40917E-04  1068   0.947E-02    0.548E-02
DAV:   8    -0.672388926541E+02   -0.43797E-03   -0.14205E-03  1056   0.160E-01    0.725E-02
DAV:   9    -0.672391513608E+02   -0.25871E-03   -0.92335E-05  1128   0.463E-02    0.375E-02
DAV:  10    -0.672397680478E+02   -0.61669E-03   -0.22097E-04  1056   0.671E-02    0.118E-02
DAV:  11    -0.672399986237E+02   -0.23058E-03   -0.19501E-05   912   0.204E-02    0.900E-03
DAV:  12    -0.672400950126E+02   -0.96389E-04   -0.53624E-06   936   0.818E-03    0.525E-03
DAV:  13    -0.672401320947E+02   -0.37082E-04   -0.47771E-06   912   0.835E-03    0.169E-03
DAV:  14    -0.672401339519E+02   -0.18572E-05   -0.11976E-07   816   0.181E-03    0.837E-04
DAV:  15    -0.672401346998E+02   -0.74793E-06   -0.82036E-08   720   0.135E-03
  27 F= -.67240135E+02 E0= -.67240135E+02  d E =-.261303E-02
 curvature: ****** expect dE=-0.122E+01 dE for cont linesearch -0.868E-06
 trial: gam= 5.60101 g(F)=  0.124E-02 g(S)=  0.942E-02 ort = 0.455E-04 (trialstep = 0.176E-01)
 search vector abs. value=  0.855E+01
 bond charge predicted
       N       E                     dE             d eps       ncg     rms          rms(c)
DAV:   1    -0.672444778094E+02   -0.43439E-02   -0.14707E-01  1044   0.206E+00    0.252E-01
DAV:   2    -0.672415534784E+02    0.29243E-02   -0.32332E-03  1092   0.298E-01    0.132E-01
DAV:   3    -0.672401419844E+02    0.14115E-02   -0.33738E-03  1104   0.261E-01    0.384E-02
DAV:   4    -0.672401664587E+02   -0.24474E-04   -0.14773E-04  1092   0.631E-02    0.165E-02
DAV:   5    -0.672401771168E+02   -0.10658E-04   -0.54825E-05  1008   0.329E-02    0.100E-02
DAV:   6    -0.672402759906E+02   -0.98874E-04   -0.29156E-05  1008   0.248E-02    0.999E-03
DAV:   7    -0.672402994686E+02   -0.23478E-04   -0.58060E-06  1128   0.100E-02    0.479E-03
DAV:   8    -0.672403266364E+02   -0.27168E-04   -0.18248E-05  1080   0.154E-02    0.581E-03
DAV:   9    -0.672403276298E+02   -0.99344E-06   -0.10043E-06   984   0.484E-03
  28 F= -.67240328E+02 E0= -.67240328E+02  d E =-.192930E-03
 ZBRENT: can't locate minimum, use default step
 trial-energy change:   -0.000193  1 .order   -0.000177   -0.000192   -0.000162
 step:   0.0704(harm=  0.1123)  dis= 0.00002  next Energy=   -67.240747 (dE=-0.613E-03)
 bond charge predicted
       N       E                     dE             d eps       ncg     rms          rms(c)
DAV:   1    -0.672787403864E+02   -0.38414E-01   -0.13465E+00  1020   0.624E+00    0.763E-01
DAV:   2    -0.672523133297E+02    0.26427E-01   -0.28791E-02   996   0.900E-01    0.401E-01
DAV:   3    -0.672403408488E+02    0.11972E-01   -0.31427E-02  1212   0.794E-01    0.118E-01
DAV:   4    -0.672403888530E+02   -0.48004E-04   -0.14993E-03   996   0.197E-01    0.499E-02
DAV:   5    -0.672403587721E+02    0.30081E-04   -0.50716E-04   960   0.102E-01    0.313E-02
DAV:   6    -0.672407983532E+02   -0.43958E-03   -0.26373E-04   960   0.781E-02    0.296E-02
DAV:   7    -0.672408741417E+02   -0.75788E-04   -0.53968E-05  1044   0.320E-02    0.136E-02
DAV:   8    -0.672409321096E+02   -0.57968E-04   -0.13431E-04   948   0.443E-02    0.172E-02
DAV:   9    -0.672409289118E+02    0.31978E-05   -0.12539E-05  1224   0.165E-02    0.539E-03
DAV:  10    -0.672409303421E+02   -0.14303E-05   -0.13051E-05   960   0.167E-02    0.577E-03
DAV:  11    -0.672409346762E+02   -0.43341E-05   -0.18505E-06   720   0.654E-03    0.280E-03
DAV:  12    -0.672409357755E+02   -0.10993E-05   -0.91121E-07   804   0.468E-03    0.370E-04
DAV:  13    -0.672409366745E+02   -0.89905E-06   -0.15152E-07   684   0.190E-03
  29 F= -.67240937E+02 E0= -.67240937E+02  d E =-.801975E-03
 curvature: -35.38 expect dE=-0.421E+00 dE for cont linesearch -0.591E-03
 ZBRENT: increasing intervall
 opt :   0.1761  next Energy=   -67.242490 (dE=-0.235E-02)
 bond charge predicted
       N       E                     dE             d eps       ncg     rms          rms(c)
DAV:   1    -0.673975120757E+02   -0.15658E+00   -0.55863E+00   996   0.128E+01    0.156E+00
DAV:   2    -0.672891201078E+02    0.10839E+00   -0.11873E-01  1008   0.182E+00    0.814E-01
DAV:   3    -0.672420383882E+02    0.47082E-01   -0.12698E-01  1260   0.160E+00    0.239E-01
DAV:   4    -0.672418204665E+02    0.21792E-03   -0.66840E-03   972   0.408E-01    0.982E-02
DAV:   5    -0.672413487534E+02    0.47171E-03   -0.20614E-03  1056   0.209E-01    0.634E-02
DAV:   6    -0.672422126627E+02   -0.86391E-03   -0.95867E-04   960   0.153E-01    0.559E-02
DAV:   7    -0.672422732762E+02   -0.60613E-04   -0.21906E-04  1020   0.647E-02    0.239E-02
DAV:   8    -0.672422646740E+02    0.86022E-05   -0.36664E-04   984   0.745E-02    0.295E-02
DAV:   9    -0.672422362791E+02    0.28395E-04   -0.56786E-05  1188   0.347E-02    0.521E-03
DAV:  10    -0.672422388115E+02   -0.25324E-05   -0.20423E-05   996   0.215E-02    0.883E-03
DAV:  11    -0.672422524279E+02   -0.13616E-04   -0.67226E-06   948   0.117E-02    0.291E-03
DAV:  12    -0.672422564821E+02   -0.40542E-05   -0.11861E-06   804   0.549E-03    0.837E-04
DAV:  13    -0.672422584638E+02   -0.19817E-05   -0.29196E-07   684   0.224E-03    0.312E-04
DAV:  14    -0.672422585351E+02   -0.71351E-07   -0.23232E-08   792   0.743E-04
  30 F= -.67242259E+02 E0= -.67242259E+02  d E =-.212384E-02
 curvature: -92.96 expect dE=-0.130E+01 dE for cont linesearch -0.167E-02
 ZBRENT: increasing intervall
 opt :   0.3875  next Energy=   -67.244968 (dE=-0.483E-02)
 bond charge predicted
       N       E                     dE             d eps       ncg     rms          rms(c)
DAV:   1    -0.679064161655E+02   -0.66416E+00   -0.24117E+01  1008   0.268E+01    0.335E+00
DAV:   2    -0.674360282316E+02    0.47039E+00   -0.54606E-01   972   0.385E+00    0.165E+00
DAV:   3    -0.672545826107E+02    0.18145E+00   -0.45128E-01  1260   0.301E+00    0.454E-01
DAV:   4    -0.672479612894E+02    0.66213E-02   -0.21777E-02  1140   0.732E-01    0.189E-01
DAV:   5    -0.672460725104E+02    0.18888E-02   -0.49320E-03  1104   0.337E-01    0.108E-01
DAV:   6    -0.672460971607E+02   -0.24650E-04   -0.28588E-03   936   0.251E-01    0.917E-02
DAV:   7    -0.672457109244E+02    0.38624E-03   -0.32647E-04  1008   0.811E-02    0.395E-02
DAV:   8    -0.672451307534E+02    0.58017E-03   -0.67185E-04   948   0.958E-02    0.400E-02
DAV:   9    -0.672450318987E+02    0.98855E-04   -0.11615E-04  1152   0.514E-02    0.854E-03
DAV:  10    -0.672450544044E+02   -0.22506E-04   -0.83636E-06   936   0.145E-02    0.820E-03
DAV:  11    -0.672450824500E+02   -0.28046E-04   -0.57961E-06   936   0.109E-02    0.164E-03
DAV:  12    -0.672450934953E+02   -0.11045E-04   -0.13603E-06   936   0.425E-03    0.412E-04
DAV:  13    -0.672450939536E+02   -0.45836E-06   -0.38223E-08   804   0.893E-04
  31 F= -.67245094E+02 E0= -.67245094E+02  d E =-.495925E-02
 curvature: ****** expect dE=-0.284E+01 dE for cont linesearch -0.247E-02
 ZBRENT: increasing intervall
 opt :   0.8101  next Energy=   -67.249854 (dE=-0.972E-02)
 bond charge predicted
       N       E                     dE             d eps       ncg     rms          rms(c)
DAV:   1    -0.703961122103E+02   -0.31510E+01   -0.11342E+02  1044   0.597E+01    0.811E+00
DAV:   2    -0.679675989544E+02    0.24285E+01   -0.31538E+00   924   0.907E+00    0.327E+00
DAV:   3    -0.673451401194E+02    0.62246E+00   -0.12910E+00  1224   0.515E+00    0.979E-01
DAV:   4    -0.672752470929E+02    0.69893E-01   -0.11842E-01  1164   0.161E+00    0.432E-01
DAV:   5    -0.672651379278E+02    0.10109E-01   -0.92261E-03  1128   0.523E-01    0.184E-01
DAV:   6    -0.672557425412E+02    0.93954E-02   -0.99727E-03   972   0.450E-01    0.164E-01
DAV:   7    -0.672509431776E+02    0.47994E-02   -0.22896E-03   984   0.231E-01    0.631E-02
DAV:   8    -0.672497640178E+02    0.11792E-02   -0.59683E-04  1032   0.962E-02    0.473E-02
DAV:   9    -0.672496176059E+02    0.14641E-03   -0.16746E-04  1008   0.698E-02    0.139E-02
DAV:  10    -0.672496426834E+02   -0.25077E-04   -0.16454E-05  1176   0.219E-02    0.644E-03
DAV:  11    -0.672496743500E+02   -0.31667E-04   -0.73223E-06   996   0.135E-02    0.183E-03
DAV:  12    -0.672496810110E+02   -0.66609E-05   -0.10255E-06   780   0.521E-03    0.563E-04
DAV:  13    -0.672496820977E+02   -0.10867E-05   -0.10171E-07   744   0.159E-03    0.211E-04
DAV:  14    -0.672496823768E+02   -0.27914E-06   -0.18388E-08   720   0.742E-04
  32 F= -.67249682E+02 E0= -.67249682E+02  d E =-.954768E-02
 curvature: ****** expect dE=-0.907E+01 dE for cont linesearch -0.914E-03
 ZBRENT: increasing intervall
 opt :   1.6555  next Energy=   -67.248447 (dE=-0.831E-02)
 bond charge predicted
       N       E                     dE             d eps       ncg     rms          rms(c)
DAV:   1    -0.855033782290E+02   -0.18254E+02   -0.69530E+02   948   0.156E+02    0.216E+01
DAV:   2    -0.694347566856E+02    0.16069E+02   -0.71559E+01   936   0.261E+01    0.741E+00
DAV:   3    -0.675562958840E+02    0.18785E+01   -0.49294E+00  1260   0.103E+01    0.273E+00
DAV:   4    -0.672786105998E+02    0.27769E+00   -0.54070E-01  1332   0.336E+00    0.101E+00
DAV:   5    -0.672522036794E+02    0.26407E-01   -0.50417E-02  1212   0.114E+00    0.459E-01
DAV:   6    -0.672461693141E+02    0.60344E-02   -0.82906E-03  1392   0.509E-01    0.145E-01
DAV:   7    -0.672449361212E+02    0.12332E-02   -0.20235E-03  1188   0.256E-01    0.757E-02
DAV:   8    -0.672457946672E+02   -0.85855E-03   -0.36626E-03  1056   0.259E-01    0.490E-02
DAV:   9    -0.672467575353E+02   -0.96287E-03   -0.86729E-04  1044   0.121E-01    0.218E-02
DAV:  10    -0.672468073590E+02   -0.49824E-04   -0.53291E-05  1236   0.351E-02    0.384E-03
DAV:  11    -0.672468436116E+02   -0.36253E-04   -0.83047E-06  1068   0.139E-02    0.284E-03
DAV:  12    -0.672468528982E+02   -0.92867E-05   -0.26470E-06  1104   0.741E-03    0.108E-03
DAV:  13    -0.672468530113E+02   -0.11310E-06   -0.15980E-07   864   0.183E-03
  33 F= -.67246853E+02 E0= -.67246853E+02  d E =-.671831E-02
 curvature: 393.22 expect dE= 0.263E+02 dE for cont linesearch  0.182E-01
 ZBRENT: bracketing found
 ZBRENT: interpolating
 opt :   0.9848  next Energy=   -67.250135 (dE=-0.100E-01)
 bond charge predicted
       N       E                     dE             d eps       ncg     rms          rms(c)
DAV:   1    -0.794909371224E+02   -0.12244E+02   -0.42028E+02  1140   0.103E+02    0.122E+01
DAV:   2    -0.727459837488E+02    0.67450E+01   -0.19465E+01  1032   0.215E+01    0.747E+00
DAV:   3    -0.676951842892E+02    0.50508E+01   -0.14497E+01  1296   0.172E+01    0.283E+00
DAV:   4    -0.675745767464E+02    0.12061E+00   -0.86674E-01  1080   0.466E+00    0.120E+00
DAV:   5    -0.673372031590E+02    0.23737E+00   -0.30704E-01  1224   0.261E+00    0.583E-01
DAV:   6    -0.672712972428E+02    0.65906E-01   -0.33681E-02  1116   0.110E+00    0.359E-01
DAV:   7    -0.672269516551E+02    0.44346E-01   -0.31109E-02  1236   0.734E-01    0.436E-01
DAV:   8    -0.672394374795E+02   -0.12486E-01   -0.48182E-02   996   0.948E-01    0.372E-01
DAV:   9    -0.672409796633E+02   -0.15422E-02   -0.26069E-03  1188   0.257E-01    0.220E-01
DAV:  10    -0.672502375027E+02   -0.92578E-02   -0.93772E-03   912   0.426E-01    0.109E-01
DAV:  11    -0.672504392703E+02   -0.20177E-03   -0.30967E-04  1188   0.936E-02    0.567E-02
DAV:  12    -0.672506516629E+02   -0.21239E-03   -0.20613E-04   924   0.677E-02    0.631E-03
DAV:  13    -0.672507256242E+02   -0.73961E-04   -0.10193E-05   948   0.199E-02    0.466E-03
DAV:  14    -0.672507289739E+02   -0.33497E-05   -0.45467E-07   912   0.416E-03    0.219E-03
DAV:  15    -0.672507298494E+02   -0.87553E-06   -0.49894E-07   828   0.351E-03
  34 F= -.67250730E+02 E0= -.67250730E+02  d E =-.105951E-01
 curvature:  -9.78 expect dE=-0.364E+00 dE for cont linesearch -0.486E-05
 trial: gam= 1.72556 g(F)=  0.196E-04 g(S)=  0.373E-01 ort = 0.206E-02 (trialstep = 0.708E-01)
 search vector abs. value=  0.255E+02
 bond charge predicted
       N       E                     dE             d eps       ncg     rms          rms(c)
DAV:   1    -0.674516710029E+02   -0.20094E+00   -0.70516E+00  1104   0.145E+01    0.178E+00
DAV:   2    -0.673132742341E+02    0.13840E+00   -0.16515E-01  1092   0.211E+00    0.926E-01
DAV:   3    -0.672537884922E+02    0.59486E-01   -0.15846E-01  1284   0.181E+00    0.265E-01
DAV:   4    -0.672529509373E+02    0.83755E-03   -0.83475E-03  1032   0.466E-01    0.106E-01
DAV:   5    -0.672521959240E+02    0.75501E-03   -0.26089E-03  1152   0.238E-01    0.749E-02
DAV:   6    -0.672530129546E+02   -0.81703E-03   -0.13064E-03  1008   0.184E-01    0.742E-02
DAV:   7    -0.672531096557E+02   -0.96701E-04   -0.22357E-04  1020   0.689E-02    0.343E-02
DAV:   8    -0.672533394939E+02   -0.22984E-03   -0.35191E-04  1020   0.793E-02    0.252E-02
DAV:   9    -0.672533825450E+02   -0.43051E-04   -0.31046E-05  1092   0.280E-02    0.807E-03
DAV:  10    -0.672534137082E+02   -0.31163E-04   -0.16201E-05  1080   0.190E-02    0.426E-03
DAV:  11    -0.672534211056E+02   -0.73974E-05   -0.20169E-06  1020   0.693E-03    0.137E-03
DAV:  12    -0.672534222872E+02   -0.11816E-05   -0.20799E-07   912   0.244E-03    0.210E-04
DAV:  13    -0.672534229699E+02   -0.68274E-06   -0.36364E-08   756   0.103E-03
  35 F= -.67253423E+02 E0= -.67253423E+02  d E =-.269312E-02
 ZBRENT: can't locate minimum, use default step
 trial-energy change:   -0.002693  1 .order   -0.002680   -0.002889   -0.002470
 step:   0.2830(harm=  0.4876)  dis= 0.00027  next Energy=   -67.257877 (dE=-0.715E-02)
 bond charge predicted
       N       E                     dE             d eps       ncg     rms          rms(c)
DAV:   1    -0.692803418254E+02   -0.20269E+01   -0.71613E+01  1032   0.474E+01    0.634E+00
DAV:   2    -0.677466800852E+02    0.15337E+01   -0.20289E+00   996   0.726E+00    0.268E+00
DAV:   3    -0.673111992587E+02    0.43548E+00   -0.90629E-01  1248   0.437E+00    0.755E-01
DAV:   4    -0.672681264048E+02    0.43073E-01   -0.73054E-02  1296   0.128E+00    0.355E-01
DAV:   5    -0.672619034964E+02    0.62229E-02   -0.62697E-03  1080   0.429E-01    0.143E-01
DAV:   6    -0.672583611715E+02    0.35423E-02   -0.74269E-03  1044   0.393E-01    0.147E-01
DAV:   7    -0.672583320003E+02    0.29171E-04   -0.12847E-03  1044   0.188E-01    0.377E-02
DAV:   8    -0.672586002898E+02   -0.26829E-03   -0.20801E-04  1056   0.636E-02    0.263E-02
DAV:   9    -0.672588235454E+02   -0.22326E-03   -0.82828E-05  1008   0.448E-02    0.530E-03
DAV:  10    -0.672588678401E+02   -0.44295E-04   -0.74104E-06  1020   0.136E-02    0.247E-03
DAV:  11    -0.672588847992E+02   -0.16959E-04   -0.20010E-06  1008   0.689E-03    0.592E-04
DAV:  12    -0.672588870683E+02   -0.22691E-05   -0.14298E-07   912   0.205E-03    0.244E-04
DAV:  13    -0.672588875281E+02   -0.45979E-06   -0.26698E-08   756   0.932E-04
  36 F= -.67258888E+02 E0= -.67258888E+02  d E =-.815768E-02
 curvature: ****** expect dE=-0.860E+00 dE for cont linesearch -0.984E-03
 ZBRENT: increasing intervall
 opt :   0.7076  next Energy=   -67.256580 (dE=-0.585E-02)
 bond charge predicted
       N       E                     dE             d eps       ncg     rms          rms(c)
DAV:   1    -0.781550643491E+02   -0.10896E+02   -0.40106E+02   984   0.117E+02    0.165E+01
DAV:   2    -0.688962951627E+02    0.92588E+01   -0.35456E+01  1152   0.195E+01    0.584E+00
DAV:   3    -0.674479537519E+02    0.14483E+01   -0.34030E+00  1332   0.851E+00    0.187E+00
DAV:   4    -0.672631298788E+02    0.18482E+00   -0.36565E-01  1260   0.284E+00    0.756E-01
DAV:   5    -0.672457951465E+02    0.17335E-01   -0.25784E-02  1272   0.887E-01    0.318E-01
DAV:   6    -0.672408283857E+02    0.49668E-02   -0.79432E-03  1212   0.468E-01    0.117E-01
DAV:   7    -0.672429562788E+02   -0.21279E-02   -0.27473E-03   948   0.291E-01    0.630E-02
DAV:   8    -0.672451437424E+02   -0.21875E-02   -0.20181E-03   936   0.193E-01    0.293E-02
DAV:   9    -0.672459581968E+02   -0.81445E-03   -0.39134E-04   948   0.850E-02    0.126E-02
DAV:  10    -0.672459352540E+02    0.22943E-04   -0.24404E-05  1212   0.233E-02    0.216E-03
DAV:  11    -0.672459758349E+02   -0.40581E-04   -0.53571E-06   960   0.117E-02    0.134E-03
DAV:  12    -0.672459758605E+02   -0.25620E-07   -0.13434E-07  1032   0.204E-03
  37 F= -.67245976E+02 E0= -.67245976E+02  d E =0.475399E-02
 curvature: 270.88 expect dE= 0.209E+01 dE for cont linesearch  0.801E-01
 ZBRENT: bracketing found
 ZBRENT: interpolating
 opt :   0.3446  next Energy=   -67.259341 (dE=-0.861E-02)
 bond charge predicted
       N       E                     dE             d eps       ncg     rms          rms(c)
DAV:   1    -0.757768033721E+02   -0.85308E+01   -0.28043E+02  1056   0.858E+01    0.102E+01
DAV:   2    -0.706922479080E+02    0.50846E+01   -0.10004E+01   984   0.168E+01    0.611E+00
DAV:   3    -0.675020859575E+02    0.31902E+01   -0.93845E+00  1044   0.139E+01    0.230E+00
DAV:   4    -0.674088494660E+02    0.93236E-01   -0.47581E-01  1044   0.363E+00    0.102E+00
DAV:   5    -0.672764839299E+02    0.13237E+00   -0.18763E-01  1296   0.203E+00    0.528E-01
DAV:   6    -0.672498484875E+02    0.26635E-01   -0.26178E-02  1164   0.995E-01    0.363E-01
DAV:   7    -0.672437768838E+02    0.60716E-02   -0.15107E-02  1272   0.529E-01    0.354E-01
DAV:   8    -0.672581204706E+02   -0.14344E-01   -0.20575E-02   924   0.684E-01    0.214E-01
DAV:   9    -0.672585394359E+02   -0.41897E-03   -0.24149E-03  1008   0.250E-01    0.632E-02
DAV:  10    -0.672594637570E+02   -0.92432E-03   -0.54427E-04   960   0.123E-01    0.267E-02
DAV:  11    -0.672595523782E+02   -0.88621E-04   -0.69784E-05  1092   0.481E-02    0.426E-03
DAV:  12    -0.672595723631E+02   -0.19985E-04   -0.44440E-06   984   0.144E-02    0.205E-03
DAV:  13    -0.672595792857E+02   -0.69227E-05   -0.43611E-07   876   0.382E-03    0.428E-04
DAV:  14    -0.672595795864E+02   -0.30066E-06   -0.57163E-08  1008   0.149E-03
  38 F= -.67259580E+02 E0= -.67259580E+02  d E =-.884974E-02
 curvature:  -1.53 expect dE=-0.631E-02 dE for cont linesearch -0.338E-05
 ZBRENT: interpolating
 opt :   0.4034  next Energy=   -67.259817 (dE=-0.909E-02)
 bond charge predicted
       N       E                     dE             d eps       ncg     rms          rms(c)
DAV:   1    -0.674425338574E+02   -0.18295E+00   -0.64599E+00  1152   0.139E+01    0.171E+00
DAV:   2    -0.673145644511E+02    0.12797E+00   -0.15753E-01  1188   0.204E+00    0.889E-01
DAV:   3    -0.672590933386E+02    0.55471E-01   -0.14214E-01  1344   0.173E+00    0.247E-01
DAV:   4    -0.672581779998E+02    0.91534E-03   -0.73637E-03  1056   0.444E-01    0.960E-02
DAV:   5    -0.672577043435E+02    0.47366E-03   -0.22526E-03  1224   0.225E-01    0.698E-02
DAV:   6    -0.672589567265E+02   -0.12524E-02   -0.10966E-03  1044   0.172E-01    0.674E-02
DAV:   7    -0.672592515549E+02   -0.29483E-03   -0.15198E-04   996   0.592E-02    0.302E-02
DAV:   8    -0.672596419772E+02   -0.39042E-03   -0.20456E-04   960   0.617E-02    0.135E-02
DAV:   9    -0.672597139389E+02   -0.71962E-04   -0.15090E-05  1188   0.190E-02    0.599E-03
DAV:  10    -0.672597389306E+02   -0.24992E-04   -0.59585E-06  1008   0.116E-02    0.158E-03
DAV:  11    -0.672597430679E+02   -0.41373E-05   -0.40623E-07   912   0.342E-03    0.643E-04
DAV:  12    -0.672597434252E+02   -0.35725E-06   -0.78146E-08   960   0.150E-03
  39 F= -.67259743E+02 E0= -.67259743E+02  d E =-.901358E-02
 curvature: ****** expect dE=-0.216E+00 dE for cont linesearch -0.313E-05
 ZBRENT: interpolating
 opt :   0.3973  next Energy=   -67.259746 (dE=-0.902E-02)
 bond charge predicted
       N       E                     dE             d eps       ncg     rms          rms(c)
DAV:   1    -0.672617771679E+02   -0.20341E-02   -0.69920E-02  1104   0.143E+00    0.176E-01
DAV:   2    -0.672603631346E+02    0.14140E-02   -0.16838E-03  1020   0.214E-01    0.928E-02
DAV:   3    -0.672596873654E+02    0.67577E-03   -0.16296E-03  1236   0.183E-01    0.263E-02
DAV:   4    -0.672596752382E+02    0.12127E-04   -0.82127E-05  1068   0.468E-02    0.103E-02
DAV:   5    -0.672596699188E+02    0.53194E-05   -0.26685E-05  1320   0.237E-02    0.741E-03
DAV:   6    -0.672597141587E+02   -0.44240E-04   -0.10660E-05   912   0.170E-02    0.783E-03
DAV:   7    -0.672597291204E+02   -0.14962E-04   -0.18487E-06  1092   0.644E-03    0.382E-03
DAV:   8    -0.672597496227E+02   -0.20502E-04   -0.33242E-06   984   0.814E-03    0.204E-03
DAV:   9    -0.672597516486E+02   -0.20259E-05   -0.13918E-07   936   0.200E-03    0.116E-03
DAV:  10    -0.672597522293E+02   -0.58073E-06   -0.15377E-07   816   0.191E-03
  40 F= -.67259752E+02 E0= -.67259752E+02  d E =-.902238E-02
 curvature: -89.58 expect dE=-0.195E+00 dE for cont linesearch -0.262E-10
 trial: gam=-0.15310 g(F)=  0.548E-03 g(S)=  0.163E-02 ort = 0.273E-05 (trialstep = 0.136E+00)
 search vector abs. value=  0.600E+00
 bond charge predicted
       N       E                     dE             d eps       ncg     rms          rms(c)
DAV:   1    -0.672771035095E+02   -0.17352E-01   -0.59967E-01  1140   0.419E+00    0.507E-01
DAV:   2    -0.672654707243E+02    0.11633E-01   -0.13716E-02  1032   0.606E-01    0.269E-01
DAV:   3    -0.672600070108E+02    0.54637E-02   -0.13785E-02  1260   0.531E-01    0.758E-02
DAV:   4    -0.672598399871E+02    0.16702E-03   -0.62852E-04  1020   0.130E-01    0.295E-02
DAV:   5    -0.672597340041E+02    0.10598E-03   -0.21414E-04  1356   0.671E-02    0.209E-02
DAV:   6    -0.672598769715E+02   -0.14297E-03   -0.74670E-05   924   0.475E-02    0.237E-02
DAV:   7    -0.672599281548E+02   -0.51183E-04   -0.16003E-05   912   0.232E-02    0.112E-02
DAV:   8    -0.672599996010E+02   -0.71446E-04   -0.27718E-05   960   0.255E-02    0.705E-03
DAV:   9    -0.672600074538E+02   -0.78527E-05   -0.13343E-06   972   0.677E-03    0.402E-03
DAV:  10    -0.672600106189E+02   -0.31652E-05   -0.15511E-06   768   0.615E-03    0.443E-04
DAV:  11    -0.672600112568E+02   -0.63791E-06   -0.11501E-07   924   0.211E-03
  41 F= -.67260011E+02 E0= -.67260011E+02  d E =-.259028E-03
 ZBRENT: can't locate minimum, use default step
 trial-energy change:   -0.000259  1 .order   -0.000263   -0.000296   -0.000231
 step:   0.5443(harm=  0.6171)  dis= 0.00106  next Energy=   -67.260423 (dE=-0.671E-03)
 bond charge predicted
       N       E                     dE             d eps       ncg     rms          rms(c)
DAV:   1    -0.674104195320E+02   -0.15041E+00   -0.52267E+00  1152   0.123E+01    0.149E+00
DAV:   2    -0.673102267344E+02    0.10019E+00   -0.12486E-01  1116   0.181E+00    0.795E-01
DAV:   3    -0.672627417146E+02    0.47485E-01   -0.12154E-01  1248   0.157E+00    0.223E-01
DAV:   4    -0.672607653204E+02    0.19764E-02   -0.52076E-03  1080   0.374E-01    0.895E-02
DAV:   5    -0.672593110579E+02    0.14543E-02   -0.18922E-03  1320   0.198E-01    0.607E-02
DAV:   6    -0.672595224964E+02   -0.21144E-03   -0.55087E-04   936   0.134E-01    0.716E-02
DAV:   7    -0.672598096783E+02   -0.28718E-03   -0.12375E-04   924   0.682E-02    0.361E-02
DAV:   8    -0.672603425791E+02   -0.53290E-03   -0.22462E-04   960   0.799E-02    0.250E-02
DAV:   9    -0.672603642774E+02   -0.21698E-04   -0.13636E-05   984   0.240E-02    0.141E-02
DAV:  10    -0.672603731100E+02   -0.88326E-05   -0.14778E-05  1128   0.184E-02    0.130E-03
DAV:  11    -0.672603781204E+02   -0.50104E-05   -0.43679E-07   768   0.386E-03    0.929E-04
DAV:  12    -0.672603786060E+02   -0.48556E-06   -0.54969E-08   996   0.141E-03
  42 F= -.67260379E+02 E0= -.67260379E+02  d E =-.626377E-03
 curvature: -83.19 expect dE=-0.260E-01 dE for cont linesearch -0.519E-05
 ZBRENT: extrapolating
 opt :   0.5969  next Energy=   -67.260384 (dE=-0.631E-03)
 bond charge predicted
       N       E                     dE             d eps       ncg     rms          rms(c)
DAV:   1    -0.672627853593E+02   -0.24072E-02   -0.84631E-02  1164   0.157E+00    0.191E-01
DAV:   2    -0.672611241821E+02    0.16612E-02   -0.19327E-03   972   0.226E-01    0.101E-01
DAV:   3    -0.672603068706E+02    0.81731E-03   -0.19330E-03  1248   0.199E-01    0.283E-02
DAV:   4    -0.672602927703E+02    0.14100E-04   -0.85117E-05  1056   0.479E-02    0.111E-02
DAV:   5    -0.672602860710E+02    0.66993E-05   -0.29397E-05  1236   0.248E-02    0.776E-03
DAV:   6    -0.672603361542E+02   -0.50083E-04   -0.11640E-05   912   0.179E-02    0.891E-03
DAV:   7    -0.672603533929E+02   -0.17239E-04   -0.25393E-06   984   0.783E-03    0.409E-03
DAV:   8    -0.672603785388E+02   -0.25146E-04   -0.47136E-06   948   0.934E-03    0.279E-03
DAV:   9    -0.672603812604E+02   -0.27216E-05   -0.22506E-07   924   0.246E-03    0.147E-03
DAV:  10    -0.672603823228E+02   -0.10624E-05   -0.26697E-07   744   0.253E-03    0.319E-04
DAV:  11    -0.672603824586E+02   -0.13589E-06   -0.20335E-08  1008   0.837E-04
  43 F= -.67260382E+02 E0= -.67260382E+02  d E =-.630229E-03
 curvature: -81.56 expect dE=-0.232E-01 dE for cont linesearch -0.396E-07
 trial: gam=-0.04129 g(F)=  0.773E-04 g(S)=  0.207E-03 ort = 0.171E-04 (trialstep = 0.228E+00)
 search vector abs. value=  0.131E-02
 bond charge predicted
       N       E                     dE             d eps       ncg     rms          rms(c)
DAV:   1    -0.672604892009E+02   -0.10688E-03   -0.30547E-03  1152   0.321E-01    0.350E-02
DAV:   2    -0.672604400719E+02    0.49129E-04   -0.71213E-05   948   0.435E-02    0.190E-02
DAV:   3    -0.672604117392E+02    0.28333E-04   -0.50083E-05  1128   0.322E-02    0.333E-03
DAV:   4    -0.672604117502E+02   -0.10988E-07   -0.10131E-06   912   0.593E-03
  44 F= -.67260412E+02 E0= -.67260412E+02  d E =-.292916E-04
 trial-energy change:   -0.000029  1 .order   -0.000044   -0.000065   -0.000023
 step:   0.3556(harm=  0.3556)  dis= 0.00031  next Energy=   -67.260433 (dE=-0.504E-04)
 reached required accuracy - stopping structural energy minimisation
 writing wavefunctions
