BC3                                     
           1
     4.481422    2.587350    0.000000
    -4.481422    2.587350    0.000000
     0.000000    0.000000   15.000000
   B    C 
   2   6
Direct configuration=     1
   0.33333300  0.66666600  0.25000000
   0.66666600  0.33333300  0.25000000
   0.16666600  0.33333300  0.25000000
   0.33333300  0.16666600  0.25000000
   0.16666600  0.83333300  0.25000000
   0.83333300  0.16666600  0.25000000
   0.66666600  0.83333300  0.25000000
   0.83333300  0.66666600  0.25000000
BC3                                     
           1
     4.439634    2.563224   -0.000000
    -4.439634    2.563224    0.000000
     0.000000   -0.000000   14.983231
   B    C 
   2   6
Direct configuration=     2
   0.33333300  0.66666600  0.25000000
   0.66666600  0.33333300  0.25000000
   0.14357688  0.28715476  0.25000000
   0.28715476  0.14357688  0.25000000
   0.14357688  0.85642212  0.25000000
   0.85642212  0.14357688  0.25000000
   0.71284424  0.85642212  0.25000000
   0.85642212  0.71284424  0.25000000
BC3                                     
           1
     4.466900    2.578966   -0.000000
    -4.466900    2.578966    0.000000
     0.000000   -0.000000   14.994173
   B    C 
   2   6
Direct configuration=     3
   0.33333300  0.66666600  0.25000000
   0.66666600  0.33333300  0.25000000
   0.15878424  0.31756947  0.25000000
   0.31756947  0.15878424  0.25000000
   0.15878424  0.84121476  0.25000000
   0.84121476  0.15878424  0.25000000
   0.68242953  0.84121476  0.25000000
   0.84121476  0.68242953  0.25000000
BC3                                     
           1
     4.467010    2.579029   -0.000000
    -4.467010    2.579029    0.000000
     0.000000   -0.000000   14.994217
   B    C 
   2   6
Direct configuration=     4
   0.33333300  0.66666600  0.25000000
   0.66666600  0.33333300  0.25000000
   0.15884471  0.31769042  0.25000000
   0.31769042  0.15884471  0.25000000
   0.15884471  0.84115429  0.25000000
   0.84115429  0.15884471  0.25000000
   0.68230858  0.84115429  0.25000000
   0.84115429  0.68230858  0.25000000
BC3                                     
           1
     4.498781    2.597372   -0.000000
    -4.498781    2.597372    0.000000
     0.000000    0.000000   14.980677
   B    C 
   2   6
Direct configuration=     5
   0.33333300  0.66666600  0.25000000
   0.66666600  0.33333300  0.25000000
   0.15866387  0.31732874  0.25000000
   0.31732874  0.15866387  0.25000000
   0.15866387  0.84133513  0.25000000
   0.84133513  0.15866387  0.25000000
   0.68267026  0.84133513  0.25000000
   0.84133513  0.68267026  0.25000000
BC3                                     
           1
     4.480261    2.586680   -0.000000
    -4.480261    2.586680    0.000000
     0.000000   -0.000000   14.988569
   B    C 
   2   6
Direct configuration=     6
   0.33333300  0.66666600  0.25000000
   0.66666600  0.33333300  0.25000000
   0.15876854  0.31753807  0.25000000
   0.31753807  0.15876854  0.25000000
   0.15876854  0.84123046  0.25000000
   0.84123046  0.15876854  0.25000000
   0.68246093  0.84123046  0.25000000
   0.84123046  0.68246093  0.25000000
BC3                                     
           1
     4.480498    2.586816   -0.000000
    -4.480498    2.586816    0.000000
     0.000000   -0.000000   14.975985
   B    C 
   2   6
Direct configuration=     7
   0.33333300  0.66666600  0.25000000
   0.66666600  0.33333300  0.25000000
   0.15859958  0.31720016  0.25000000
   0.31720016  0.15859958  0.25000000
   0.15859958  0.84139942  0.25000000
   0.84139942  0.15859958  0.25000000
   0.68279884  0.84139942  0.25000000
   0.84139942  0.68279884  0.25000000
BC3                                     
           1
     4.480395    2.586757   -0.000000
    -4.480395    2.586757    0.000000
     0.000000   -0.000000   14.981456
   B    C 
   2   6
Direct configuration=     8
   0.33333300  0.66666600  0.25000000
   0.66666600  0.33333300  0.25000000
   0.15867303  0.31734706  0.25000000
   0.31734706  0.15867303  0.25000000
   0.15867303  0.84132597  0.25000000
   0.84132597  0.15867303  0.25000000
   0.68265194  0.84132597  0.25000000
   0.84132597  0.68265194  0.25000000
BC3                                     
           1
     4.480443    2.586785   -0.000000
    -4.480443    2.586785    0.000000
     0.000000   -0.000000   14.967946
   B    C 
   2   6
Direct configuration=     9
   0.33333300  0.66666600  0.25000000
   0.66666600  0.33333300  0.25000000
   0.15867864  0.31735827  0.25000000
   0.31735827  0.15867864  0.25000000
   0.15867864  0.84132036  0.25000000
   0.84132036  0.15867864  0.25000000
   0.68264073  0.84132036  0.25000000
   0.84132036  0.68264073  0.25000000
BC3                                     
           1
     4.480586    2.586867   -0.000000
    -4.480586    2.586867   -0.000000
     0.000000   -0.000000   14.927418
   B    C 
   2   6
Direct configuration=    10
   0.33333300  0.66666600  0.25000000
   0.66666600  0.33333300  0.25000000
   0.15869546  0.31739193  0.25000000
   0.31739193  0.15869546  0.25000000
   0.15869546  0.84130354  0.25000000
   0.84130354  0.15869546  0.25000000
   0.68260707  0.84130354  0.25000000
   0.84130354  0.68260707  0.25000000
BC3                                     
           1
     4.480872    2.587032   -0.000000
    -4.480872    2.587032   -0.000000
     0.000000   -0.000000   14.846360
   B    C 
   2   6
Direct configuration=    11
   0.33333300  0.66666600  0.25000000
   0.66666600  0.33333300  0.25000000
   0.15872912  0.31745923  0.25000000
   0.31745923  0.15872912  0.25000000
   0.15872912  0.84126988  0.25000000
   0.84126988  0.15872912  0.25000000
   0.68253977  0.84126988  0.25000000
   0.84126988  0.68253977  0.25000000
BC3                                     
           1
     4.481444    2.587363   -0.000000
    -4.481444    2.587363   -0.000000
     0.000000   -0.000000   14.684245
   B    C 
   2   6
Direct configuration=    12
   0.33333300  0.66666600  0.25000000
   0.66666600  0.33333300  0.25000000
   0.15879642  0.31759383  0.25000000
   0.31759383  0.15879642  0.25000000
   0.15879642  0.84120258  0.25000000
   0.84120258  0.15879642  0.25000000
   0.68240517  0.84120258  0.25000000
   0.84120258  0.68240517  0.25000000
BC3                                     
           1
     4.482589    2.588024   -0.000000
    -4.482589    2.588024   -0.000000
     0.000000   -0.000000   14.360015
   B    C 
   2   6
Direct configuration=    13
   0.33333300  0.66666600  0.25000000
   0.66666600  0.33333300  0.25000000
   0.15893100  0.31786300  0.25000000
   0.31786300  0.15893100  0.25000000
   0.15893100  0.84106800  0.25000000
   0.84106800  0.15893100  0.25000000
   0.68213600  0.84106800  0.25000000
   0.84106800  0.68213600  0.25000000
BC3                                     
           1
     4.482555    2.588004   -0.000000
    -4.482555    2.588004   -0.000000
     0.000000   -0.000000   14.356538
   B    C 
   2   6
Direct configuration=    14
   0.33333300  0.66666600  0.25000000
   0.66666600  0.33333300  0.25000000
   0.15892865  0.31785830  0.25000000
   0.31785830  0.15892865  0.25000000
   0.15892865  0.84107035  0.25000000
   0.84107035  0.15892865  0.25000000
   0.68214070  0.84107035  0.25000000
   0.84107035  0.68214070  0.25000000
BC3                                     
           1
     4.482455    2.587946   -0.000000
    -4.482455    2.587946   -0.000000
     0.000000   -0.000000   14.346108
   B    C 
   2   6
Direct configuration=    15
   0.33333300  0.66666600  0.25000000
   0.66666600  0.33333300  0.25000000
   0.15892160  0.31784419  0.25000000
   0.31784419  0.15892160  0.25000000
   0.15892160  0.84107740  0.25000000
   0.84107740  0.15892160  0.25000000
   0.68215481  0.84107740  0.25000000
   0.84107740  0.68215481  0.25000000
BC3                                     
           1
     4.482254    2.587830   -0.000000
    -4.482254    2.587830   -0.000000
     0.000000   -0.000000   14.325248
   B    C 
   2   6
Direct configuration=    16
   0.33333300  0.66666600  0.25000000
   0.66666600  0.33333300  0.25000000
   0.15890749  0.31781598  0.25000000
   0.31781598  0.15890749  0.25000000
   0.15890749  0.84109151  0.25000000
   0.84109151  0.15890749  0.25000000
   0.68218302  0.84109151  0.25000000
   0.84109151  0.68218302  0.25000000
BC3                                     
           1
     4.481851    2.587598   -0.000000
    -4.481851    2.587598   -0.000000
     0.000000   -0.000000   14.283528
   B    C 
   2   6
Direct configuration=    17
   0.33333300  0.66666600  0.25000000
   0.66666600  0.33333300  0.25000000
   0.15887928  0.31775956  0.25000000
   0.31775956  0.15887928  0.25000000
   0.15887928  0.84111972  0.25000000
   0.84111972  0.15887928  0.25000000
   0.68223944  0.84111972  0.25000000
   0.84111972  0.68223944  0.25000000
BC3                                     
           1
     4.481047    2.587134   -0.000000
    -4.481047    2.587134   -0.000000
     0.000000   -0.000000   14.200088
   B    C 
   2   6
Direct configuration=    18
   0.33333300  0.66666600  0.25000000
   0.66666600  0.33333300  0.25000000
   0.15882285  0.31764671  0.25000000
   0.31764671  0.15882285  0.25000000
   0.15882285  0.84117615  0.25000000
   0.84117615  0.15882285  0.25000000
   0.68235229  0.84117615  0.25000000
   0.84117615  0.68235229  0.25000000
BC3                                     
           1
     4.479439    2.586205   -0.000000
    -4.479439    2.586205   -0.000000
     0.000000   -0.000000   14.033207
   B    C 
   2   6
Direct configuration=    19
   0.33333300  0.66666600  0.25000000
   0.66666600  0.33333300  0.25000000
   0.15870998  0.31742096  0.25000000
   0.31742096  0.15870998  0.25000000
   0.15870998  0.84128902  0.25000000
   0.84128902  0.15870998  0.25000000
   0.68257804  0.84128902  0.25000000
   0.84128902  0.68257804  0.25000000
BC3                                     
           1
     4.476222    2.584348   -0.000000
    -4.476222    2.584348   -0.000000
     0.000000   -0.000000   13.699446
   B    C 
   2   6
Direct configuration=    20
   0.33333300  0.66666600  0.25000000
   0.66666600  0.33333300  0.25000000
   0.15848415  0.31696931  0.25000000
   0.31696931  0.15848415  0.25000000
   0.15848415  0.84151485  0.25000000
   0.84151485  0.15848415  0.25000000
   0.68302969  0.84151485  0.25000000
   0.84151485  0.68302969  0.25000000
BC3                                     
           1
     4.478169    2.585472   -0.000000
    -4.478169    2.585472   -0.000000
     0.000000   -0.000000   13.901483
   B    C 
   2   6
Direct configuration=    21
   0.33333300  0.66666600  0.25000000
   0.66666600  0.33333300  0.25000000
   0.15862095  0.31724291  0.25000000
   0.31724291  0.15862095  0.25000000
   0.15862095  0.84137805  0.25000000
   0.84137805  0.15862095  0.25000000
   0.68275609  0.84137805  0.25000000
   0.84137805  0.68275609  0.25000000
