BC3                                     
           1
     4.481422    2.587350    0.000000
    -4.481422    2.587350    0.000000
     0.000000    0.000000   15.000000
   B    C 
   2   6
Direct configuration=     1
   0.33333300  0.66666600  0.25000000
   0.66666600  0.33333300  0.25000000
   0.16666600  0.33333300  0.25000000
   0.33333300  0.16666600  0.25000000
   0.16666600  0.83333300  0.25000000
   0.83333300  0.16666600  0.25000000
   0.66666600  0.83333300  0.25000000
   0.83333300  0.66666600  0.25000000
BC3                                     
           1
     4.439634    2.563224   -0.000000
    -4.439634    2.563224    0.000000
     0.000000   -0.000000   14.983231
   B    C 
   2   6
Direct configuration=     2
   0.33333300  0.66666600  0.25000000
   0.66666600  0.33333300  0.25000000
   0.14357688  0.28715476  0.25000000
   0.28715476  0.14357688  0.25000000
   0.14357688  0.85642212  0.25000000
   0.85642212  0.14357688  0.25000000
   0.71284424  0.85642212  0.25000000
   0.85642212  0.71284424  0.25000000
