BC3                                     
           1
     4.481422    2.587350    0.000000
    -4.481422    2.587350    0.000000
     0.000000    0.000000   15.000000
   B    C 
   2   6
Direct configuration=     1
   0.33333300  0.66666600  0.25000000
   0.66666600  0.33333300  0.25000000
   0.16666600  0.33333300  0.25000000
   0.33333300  0.16666600  0.25000000
   0.16666600  0.83333300  0.25000000
   0.83333300  0.16666600  0.25000000
   0.66666600  0.83333300  0.25000000
   0.83333300  0.66666600  0.25000000
BC3                                     
           1
     4.439471    2.563130    0.000000
    -4.439471    2.563130   -0.000000
    -0.000000   -0.000000   14.982908
   B    C 
   2   6
Direct configuration=     2
   0.33333300  0.66666600  0.25000000
   0.66666600  0.33333300  0.25000000
   0.14357683  0.28715466  0.25000000
   0.28715466  0.14357683  0.25000000
   0.14357683  0.85642217  0.25000000
   0.85642217  0.14357683  0.25000000
   0.71284434  0.85642217  0.25000000
   0.85642217  0.71284434  0.25000000
BC3                                     
           1
     4.466845    2.578934    0.000000
    -4.466845    2.578934   -0.000000
    -0.000000   -0.000000   14.994061
   B    C 
   2   6
Direct configuration=     3
   0.33333300  0.66666600  0.25000000
   0.66666600  0.33333300  0.25000000
   0.15878526  0.31757153  0.25000000
   0.31757153  0.15878526  0.25000000
   0.15878526  0.84121374  0.25000000
   0.84121374  0.15878526  0.25000000
   0.68242747  0.84121374  0.25000000
   0.84121374  0.68242747  0.25000000
BC3                                     
           1
     4.466954    2.578997    0.000000
    -4.466954    2.578997   -0.000000
    -0.000000   -0.000000   14.994105
   B    C 
   2   6
Direct configuration=     4
   0.33333300  0.66666600  0.25000000
   0.66666600  0.33333300  0.25000000
   0.15884551  0.31769203  0.25000000
   0.31769203  0.15884551  0.25000000
   0.15884551  0.84115349  0.25000000
   0.84115349  0.15884551  0.25000000
   0.68230697  0.84115349  0.25000000
   0.84115349  0.68230697  0.25000000
BC3                                     
           1
     4.498798    2.597382    0.000000
    -4.498798    2.597382   -0.000000
    -0.000000   -0.000000   14.980210
   B    C 
   2   6
Direct configuration=     5
   0.33333300  0.66666600  0.25000000
   0.66666600  0.33333300  0.25000000
   0.15866367  0.31732834  0.25000000
   0.31732834  0.15866367  0.25000000
   0.15866367  0.84133533  0.25000000
   0.84133533  0.15866367  0.25000000
   0.68267066  0.84133533  0.25000000
   0.84133533  0.68267066  0.25000000
BC3                                     
           1
     4.480239    2.586667    0.000000
    -4.480239    2.586667   -0.000000
    -0.000000   -0.000000   14.988308
   B    C 
   2   6
Direct configuration=     6
   0.33333300  0.66666600  0.25000000
   0.66666600  0.33333300  0.25000000
   0.15876890  0.31753880  0.25000000
   0.31753880  0.15876890  0.25000000
   0.15876890  0.84123010  0.25000000
   0.84123010  0.15876890  0.25000000
   0.68246020  0.84123010  0.25000000
   0.84123010  0.68246020  0.25000000
BC3                                     
           1
     4.480474    2.586803    0.000000
    -4.480474    2.586803   -0.000000
    -0.000000   -0.000000   14.975425
   B    C 
   2   6
Direct configuration=     7
   0.33333300  0.66666600  0.25000000
   0.66666600  0.33333300  0.25000000
   0.15859991  0.31720082  0.25000000
   0.31720082  0.15859991  0.25000000
   0.15859991  0.84139909  0.25000000
   0.84139909  0.15859991  0.25000000
   0.68279818  0.84139909  0.25000000
   0.84139909  0.68279818  0.25000000
BC3                                     
           1
     4.480372    2.586744    0.000000
    -4.480372    2.586744   -0.000000
    -0.000000   -0.000000   14.981052
   B    C 
   2   6
Direct configuration=     8
   0.33333300  0.66666600  0.25000000
   0.66666600  0.33333300  0.25000000
   0.15867372  0.31734845  0.25000000
   0.31734845  0.15867372  0.25000000
   0.15867372  0.84132528  0.25000000
   0.84132528  0.15867372  0.25000000
   0.68265055  0.84132528  0.25000000
   0.84132528  0.68265055  0.25000000
BC3                                     
           1
     4.480406    2.586764    0.000000
    -4.480406    2.586764   -0.000000
    -0.000000   -0.000000   14.967310
   B    C 
   2   6
Direct configuration=     9
   0.33333300  0.66666600  0.25000000
   0.66666600  0.33333300  0.25000000
   0.15868020  0.31736140  0.25000000
   0.31736140  0.15868020  0.25000000
   0.15868020  0.84131880  0.25000000
   0.84131880  0.15868020  0.25000000
   0.68263760  0.84131880  0.25000000
   0.84131880  0.68263760  0.25000000
BC3                                     
           1
     4.480510    2.586824    0.000000
    -4.480510    2.586824   -0.000000
    -0.000000   -0.000000   14.926082
   B    C 
   2   6
Direct configuration=    10
   0.33333300  0.66666600  0.25000000
   0.66666600  0.33333300  0.25000000
   0.15869963  0.31740026  0.25000000
   0.31740026  0.15869963  0.25000000
   0.15869963  0.84129937  0.25000000
   0.84129937  0.15869963  0.25000000
   0.68259874  0.84129937  0.25000000
   0.84129937  0.68259874  0.25000000
BC3                                     
           1
     4.480718    2.586944    0.000000
    -4.480718    2.586944   -0.000000
    -0.000000   -0.000000   14.843625
   B    C 
   2   6
Direct configuration=    11
   0.33333300  0.66666600  0.25000000
   0.66666600  0.33333300  0.25000000
   0.15873848  0.31747796  0.25000000
   0.31747796  0.15873848  0.25000000
   0.15873848  0.84126052  0.25000000
   0.84126052  0.15873848  0.25000000
   0.68252104  0.84126052  0.25000000
   0.84126052  0.68252104  0.25000000
BC3                                     
           1
     4.481134    2.587183    0.000000
    -4.481134    2.587183   -0.000000
    -0.000000   -0.000000   14.678713
   B    C 
   2   6
Direct configuration=    12
   0.33333300  0.66666600  0.25000000
   0.66666600  0.33333300  0.25000000
   0.15881619  0.31763337  0.25000000
   0.31763337  0.15881619  0.25000000
   0.15881619  0.84118281  0.25000000
   0.84118281  0.15881619  0.25000000
   0.68236563  0.84118281  0.25000000
   0.84118281  0.68236563  0.25000000
BC3                                     
           1
     4.481965    2.587663    0.000000
    -4.481965    2.587663   -0.000000
    -0.000000   -0.000000   14.348888
   B    C 
   2   6
Direct configuration=    13
   0.33333300  0.66666600  0.25000000
   0.66666600  0.33333300  0.25000000
   0.15897158  0.31794416  0.25000000
   0.31794416  0.15897158  0.25000000
   0.15897158  0.84102742  0.25000000
   0.84102742  0.15897158  0.25000000
   0.68205484  0.84102742  0.25000000
   0.84102742  0.68205484  0.25000000
BC3                                     
           1
     4.481942    2.587650    0.000000
    -4.481942    2.587650   -0.000000
    -0.000000   -0.000000   14.345816
   B    C 
   2   6
Direct configuration=    14
   0.33333300  0.66666600  0.25000000
   0.66666600  0.33333300  0.25000000
   0.15896977  0.31794055  0.25000000
   0.31794055  0.15896977  0.25000000
   0.15896977  0.84102923  0.25000000
   0.84102923  0.15896977  0.25000000
   0.68205845  0.84102923  0.25000000
   0.84102923  0.68205845  0.25000000
BC3                                     
           1
     4.481876    2.587612    0.000000
    -4.481876    2.587612   -0.000000
    -0.000000   -0.000000   14.336599
   B    C 
   2   6
Direct configuration=    15
   0.33333300  0.66666600  0.25000000
   0.66666600  0.33333300  0.25000000
   0.15896435  0.31792971  0.25000000
   0.31792971  0.15896435  0.25000000
   0.15896435  0.84103465  0.25000000
   0.84103465  0.15896435  0.25000000
   0.68206929  0.84103465  0.25000000
   0.84103465  0.68206929  0.25000000
BC3                                     
           1
     4.481742    2.587535    0.000000
    -4.481742    2.587535   -0.000000
    -0.000000   -0.000000   14.318164
   B    C 
   2   6
Direct configuration=    16
   0.33333300  0.66666600  0.25000000
   0.66666600  0.33333300  0.25000000
   0.15895351  0.31790803  0.25000000
   0.31790803  0.15895351  0.25000000
   0.15895351  0.84104549  0.25000000
   0.84104549  0.15895351  0.25000000
   0.68209097  0.84104549  0.25000000
   0.84104549  0.68209097  0.25000000
BC3                                     
           1
     4.481475    2.587380    0.000000
    -4.481475    2.587380   -0.000000
    -0.000000   -0.000000   14.281296
   B    C 
   2   6
Direct configuration=    17
   0.33333300  0.66666600  0.25000000
   0.66666600  0.33333300  0.25000000
   0.15893183  0.31786467  0.25000000
   0.31786467  0.15893183  0.25000000
   0.15893183  0.84106717  0.25000000
   0.84106717  0.15893183  0.25000000
   0.68213433  0.84106717  0.25000000
   0.84106717  0.68213433  0.25000000
BC3                                     
           1
     4.480940    2.587072    0.000000
    -4.480940    2.587072   -0.000000
    -0.000000    0.000000   14.207559
   B    C 
   2   6
Direct configuration=    18
   0.33333300  0.66666600  0.25000000
   0.66666600  0.33333300  0.25000000
   0.15888847  0.31777794  0.25000000
   0.31777794  0.15888847  0.25000000
   0.15888847  0.84111053  0.25000000
   0.84111053  0.15888847  0.25000000
   0.68222106  0.84111053  0.25000000
   0.84111053  0.68222106  0.25000000
BC3                                     
           1
     4.479871    2.586455    0.000000
    -4.479871    2.586455   -0.000000
    -0.000000    0.000000   14.060085
   B    C 
   2   6
Direct configuration=    19
   0.33333300  0.66666600  0.25000000
   0.66666600  0.33333300  0.25000000
   0.15880173  0.31760447  0.25000000
   0.31760447  0.15880173  0.25000000
   0.15880173  0.84119727  0.25000000
   0.84119727  0.15880173  0.25000000
   0.68239453  0.84119727  0.25000000
   0.84119727  0.68239453  0.25000000
BC3                                     
           1
     4.477733    2.585220    0.000000
    -4.477733    2.585220   -0.000000
    -0.000000    0.000000   13.765138
   B    C 
   2   6
Direct configuration=    20
   0.33333300  0.66666600  0.25000000
   0.66666600  0.33333300  0.25000000
   0.15862822  0.31725744  0.25000000
   0.31725744  0.15862822  0.25000000
   0.15862822  0.84137078  0.25000000
   0.84137078  0.15862822  0.25000000
   0.68274156  0.84137078  0.25000000
   0.84137078  0.68274156  0.25000000
BC3                                     
           1
     4.478575    2.585706    0.000000
    -4.478575    2.585706   -0.000000
    -0.000000    0.000000   13.682457
   B    C 
   2   6
Direct configuration=    21
   0.33333300  0.66666600  0.25000000
   0.66666600  0.33333300  0.25000000
   0.15861983  0.31724066  0.25000000
   0.31724066  0.15861983  0.25000000
   0.15861983  0.84137917  0.25000000
   0.84137917  0.15861983  0.25000000
   0.68275834  0.84137917  0.25000000
   0.84137917  0.68275834  0.25000000
BC3                                     
           1
     4.479083    2.586000    0.000000
    -4.479083    2.586000   -0.000000
    -0.000000    0.000000   13.632587
   B    C 
   2   6
Direct configuration=    22
   0.33333300  0.66666600  0.25000000
   0.66666600  0.33333300  0.25000000
   0.15861477  0.31723054  0.25000000
   0.31723054  0.15861477  0.25000000
   0.15861477  0.84138423  0.25000000
   0.84138423  0.15861477  0.25000000
   0.68276846  0.84138423  0.25000000
   0.84138423  0.68276846  0.25000000
BC3                                     
           1
     4.480099    2.586586    0.000000
    -4.480099    2.586586   -0.000000
    -0.000000    0.000000   13.532846
   B    C 
   2   6
Direct configuration=    23
   0.33333300  0.66666600  0.25000000
   0.66666600  0.33333300  0.25000000
   0.15860466  0.31721031  0.25000000
   0.31721031  0.15860466  0.25000000
   0.15860466  0.84139434  0.25000000
   0.84139434  0.15860466  0.25000000
   0.68278869  0.84139434  0.25000000
   0.84139434  0.68278869  0.25000000
BC3                                     
           1
     4.482132    2.587760    0.000000
    -4.482132    2.587760   -0.000000
    -0.000000    0.000000   13.333366
   B    C 
   2   6
Direct configuration=    24
   0.33333300  0.66666600  0.25000000
   0.66666600  0.33333300  0.25000000
   0.15858443  0.31716986  0.25000000
   0.31716986  0.15858443  0.25000000
   0.15858443  0.84141457  0.25000000
   0.84141457  0.15858443  0.25000000
   0.68282914  0.84141457  0.25000000
   0.84141457  0.68282914  0.25000000
BC3                                     
           1
     4.486196    2.590106    0.000000
    -4.486196    2.590106    0.000000
    -0.000000    0.000000   12.934404
   B    C 
   2   6
Direct configuration=    25
   0.33333300  0.66666600  0.25000000
   0.66666600  0.33333300  0.25000000
   0.15854399  0.31708899  0.25000000
   0.31708899  0.15854399  0.25000000
   0.15854399  0.84145501  0.25000000
   0.84145501  0.15854399  0.25000000
   0.68291001  0.84145501  0.25000000
   0.84145501  0.68291001  0.25000000
BC3                                     
           1
     4.494325    2.594799    0.000000
    -4.494325    2.594799    0.000000
    -0.000000    0.000000   12.136481
   B    C 
   2   6
Direct configuration=    26
   0.33333300  0.66666600  0.25000000
   0.66666600  0.33333300  0.25000000
   0.15846320  0.31692739  0.25000000
   0.31692739  0.15846320  0.25000000
   0.15846320  0.84153580  0.25000000
   0.84153580  0.15846320  0.25000000
   0.68307161  0.84153580  0.25000000
   0.84153580  0.68307161  0.25000000
BC3                                     
           1
     4.490061    2.592338    0.000000
    -4.490061    2.592338    0.000000
    -0.000000    0.000000   12.555022
   B    C 
   2   6
Direct configuration=    27
   0.33333300  0.66666600  0.25000000
   0.66666600  0.33333300  0.25000000
   0.15850550  0.31701200  0.25000000
   0.31701200  0.15850550  0.25000000
   0.15850550  0.84149350  0.25000000
   0.84149350  0.15850550  0.25000000
   0.68298700  0.84149350  0.25000000
   0.84149350  0.68298700  0.25000000
BC3                                     
           1
     4.490201    2.592419    0.000000
    -4.490201    2.592419    0.000000
    -0.000000    0.000000   12.504823
   B    C 
   2   6
Direct configuration=    28
   0.33333300  0.66666600  0.25000000
   0.66666600  0.33333300  0.25000000
   0.15850614  0.31701328  0.25000000
   0.31701328  0.15850614  0.25000000
   0.15850614  0.84149286  0.25000000
   0.84149286  0.15850614  0.25000000
   0.68298572  0.84149286  0.25000000
   0.84149286  0.68298572  0.25000000
BC3                                     
           1
     4.490623    2.592662    0.000000
    -4.490623    2.592662    0.000000
    -0.000000    0.000000   12.354225
   B    C 
   2   6
Direct configuration=    29
   0.33333300  0.66666600  0.25000000
   0.66666600  0.33333300  0.25000000
   0.15850806  0.31701711  0.25000000
   0.31701711  0.15850806  0.25000000
   0.15850806  0.84149094  0.25000000
   0.84149094  0.15850806  0.25000000
   0.68298189  0.84149094  0.25000000
   0.84149094  0.68298189  0.25000000
BC3                                     
           1
     4.491465    2.593148    0.000000
    -4.491465    2.593148    0.000000
    -0.000000    0.000000   12.053030
   B    C 
   2   6
Direct configuration=    30
   0.33333300  0.66666600  0.25000000
   0.66666600  0.33333300  0.25000000
   0.15851189  0.31702477  0.25000000
   0.31702477  0.15851189  0.25000000
   0.15851189  0.84148711  0.25000000
   0.84148711  0.15851189  0.25000000
   0.68297423  0.84148711  0.25000000
   0.84148711  0.68297423  0.25000000
BC3                                     
           1
     4.493150    2.594121    0.000000
    -4.493150    2.594121    0.000000
    -0.000000    0.000000   11.450638
   B    C 
   2   6
Direct configuration=    31
   0.33333300  0.66666600  0.25000000
   0.66666600  0.33333300  0.25000000
   0.15851954  0.31704009  0.25000000
   0.31704009  0.15851954  0.25000000
   0.15851954  0.84147946  0.25000000
   0.84147946  0.15851954  0.25000000
   0.68295891  0.84147946  0.25000000
   0.84147946  0.68295891  0.25000000
BC3                                     
           1
     4.496520    2.596067    0.000000
    -4.496520    2.596067    0.000000
     0.000000    0.000000   10.245856
   B    C 
   2   6
Direct configuration=    32
   0.33333300  0.66666600  0.25000000
   0.66666600  0.33333300  0.25000000
   0.15853485  0.31707071  0.25000000
   0.31707071  0.15853485  0.25000000
   0.15853485  0.84146415  0.25000000
   0.84146415  0.15853485  0.25000000
   0.68292829  0.84146415  0.25000000
   0.84146415  0.68292829  0.25000000
BC3                                     
           1
     4.503259    2.599958    0.000000
    -4.503259    2.599958    0.000000
     0.000000    0.000000    7.836291
   B    C 
   2   6
Direct configuration=    33
   0.33333300  0.66666600  0.25000000
   0.66666600  0.33333300  0.25000000
   0.15856545  0.31713191  0.25000000
   0.31713191  0.15856545  0.25000000
   0.15856545  0.84143355  0.25000000
   0.84143355  0.15856545  0.25000000
   0.68286709  0.84143355  0.25000000
   0.84143355  0.68286709  0.25000000
BC3                                     
           1
     4.497912    2.596871    0.000000
    -4.497912    2.596871    0.000000
     0.000000    0.000000    9.747923
   B    C 
   2   6
Direct configuration=    34
   0.33333300  0.66666600  0.25000000
   0.66666600  0.33333300  0.25000000
   0.15854121  0.31708343  0.25000000
   0.31708343  0.15854121  0.25000000
   0.15854121  0.84145779  0.25000000
   0.84145779  0.15854121  0.25000000
   0.68291557  0.84145779  0.25000000
   0.84145779  0.68291557  0.25000000
BC3                                     
           1
     4.495515    2.595486    0.000000
    -4.495515    2.595486    0.000000
     0.000000    0.000000    9.477562
   B    C 
   2   6
Direct configuration=    35
   0.33333300  0.66666600  0.25000000
   0.66666600  0.33333300  0.25000000
   0.15854876  0.31709851  0.25000000
   0.31709851  0.15854876  0.25000000
   0.15854876  0.84145024  0.25000000
   0.84145024  0.15854876  0.25000000
   0.68290049  0.84145024  0.25000000
   0.84145024  0.68290049  0.25000000
BC3                                     
           1
     4.488321    2.591333    0.000000
    -4.488321    2.591333    0.000000
     0.000000    0.000000    8.666479
   B    C 
   2   6
Direct configuration=    36
   0.33333300  0.66666600  0.25000000
   0.66666600  0.33333300  0.25000000
   0.15857140  0.31714379  0.25000000
   0.31714379  0.15857140  0.25000000
   0.15857140  0.84142760  0.25000000
   0.84142760  0.15857140  0.25000000
   0.68285521  0.84142760  0.25000000
   0.84142760  0.68285521  0.25000000
BC3                                     
           1
     4.473935    2.583028    0.000000
    -4.473935    2.583028    0.000000
     0.000000    0.000000    7.044315
   B    C 
   2   6
Direct configuration=    37
   0.33333300  0.66666600  0.25000000
   0.66666600  0.33333300  0.25000000
   0.15861675  0.31723449  0.25000000
   0.31723449  0.15861675  0.25000000
   0.15861675  0.84138225  0.25000000
   0.84138225  0.15861675  0.25000000
   0.68276451  0.84138225  0.25000000
   0.84138225  0.68276451  0.25000000
BC3                                     
           1
     4.486234    2.590128    0.000000
    -4.486234    2.590128    0.000000
     0.000000    0.000000    8.431141
   B    C 
   2   6
Direct configuration=    38
   0.33333300  0.66666600  0.25000000
   0.66666600  0.33333300  0.25000000
   0.15857785  0.31715670  0.25000000
   0.31715670  0.15857785  0.25000000
   0.15857785  0.84142115  0.25000000
   0.84142115  0.15857785  0.25000000
   0.68284230  0.84142115  0.25000000
   0.84142115  0.68284230  0.25000000
BC3                                     
           1
     4.484244    2.588979    0.000000
    -4.484244    2.588979    0.000000
     0.000000    0.000000    8.206749
   B    C 
   2   6
Direct configuration=    39
   0.33333300  0.66666600  0.25000000
   0.66666600  0.33333300  0.25000000
   0.15858413  0.31716925  0.25000000
   0.31716925  0.15858413  0.25000000
   0.15858413  0.84141487  0.25000000
   0.84141487  0.15858413  0.25000000
   0.68282975  0.84141487  0.25000000
   0.84141487  0.68282975  0.25000000
BC3                                     
           1
     4.484449    2.589098    0.000000
    -4.484449    2.589098    0.000000
     0.000000    0.000000    8.229844
   B    C 
   2   6
Direct configuration=    40
   0.33333300  0.66666600  0.25000000
   0.66666600  0.33333300  0.25000000
   0.15858348  0.31716796  0.25000000
   0.31716796  0.15858348  0.25000000
   0.15858348  0.84141552  0.25000000
   0.84141552  0.15858348  0.25000000
   0.68283104  0.84141552  0.25000000
   0.84141552  0.68283104  0.25000000
BC3                                     
           1
     4.483802    2.588724    0.000000
    -4.483802    2.588724    0.000000
     0.000000    0.000000    8.297145
   B    C 
   2   6
Direct configuration=    41
   0.33333300  0.66666600  0.25000000
   0.66666600  0.33333300  0.25000000
   0.15861309  0.31722717  0.25000000
   0.31722717  0.15861309  0.25000000
   0.15861309  0.84138591  0.25000000
   0.84138591  0.15861309  0.25000000
   0.68277183  0.84138591  0.25000000
   0.84138591  0.68277183  0.25000000
BC3                                     
           1
     4.481861    2.587604    0.000000
    -4.481861    2.587604    0.000000
     0.000000    0.000000    8.499047
   B    C 
   2   6
Direct configuration=    42
   0.33333300  0.66666600  0.25000000
   0.66666600  0.33333300  0.25000000
   0.15870192  0.31740483  0.25000000
   0.31740483  0.15870192  0.25000000
   0.15870192  0.84129708  0.25000000
   0.84129708  0.15870192  0.25000000
   0.68259417  0.84129708  0.25000000
   0.84129708  0.68259417  0.25000000
BC3                                     
           1
     4.481611    2.587459    0.000000
    -4.481611    2.587459    0.000000
     0.000000    0.000000    8.525063
   B    C 
   2   6
Direct configuration=    43
   0.33333300  0.66666600  0.25000000
   0.66666600  0.33333300  0.25000000
   0.15871337  0.31742774  0.25000000
   0.31742774  0.15871337  0.25000000
   0.15871337  0.84128563  0.25000000
   0.84128563  0.15871337  0.25000000
   0.68257126  0.84128563  0.25000000
   0.84128563  0.68257126  0.25000000
BC3                                     
           1
     4.480848    2.587019    0.000000
    -4.480848    2.587019    0.000000
     0.000000    0.000000    8.520221
   B    C 
   2   6
Direct configuration=    44
   0.33333300  0.66666600  0.25000000
   0.66666600  0.33333300  0.25000000
   0.15869124  0.31738348  0.25000000
   0.31738348  0.15869124  0.25000000
   0.15869124  0.84130776  0.25000000
   0.84130776  0.15869124  0.25000000
   0.68261552  0.84130776  0.25000000
   0.84130776  0.68261552  0.25000000
