BC3                                     
           1
     4.481422    2.587350    0.000000
    -4.481422    2.587350    0.000000
     0.000000    0.000000   15.000000
   B    C 
   2   6
Direct configuration=     1
   0.33333300  0.66666600  0.25000000
   0.66666600  0.33333300  0.25000000
   0.16666600  0.33333300  0.25000000
   0.33333300  0.16666600  0.25000000
   0.16666600  0.83333300  0.25000000
   0.83333300  0.16666600  0.25000000
   0.66666600  0.83333300  0.25000000
   0.83333300  0.66666600  0.25000000
BC3                                     
           1
     4.439634    2.563224   -0.000000
    -4.439634    2.563224    0.000000
     0.000000   -0.000000   14.983231
   B    C 
   2   6
Direct configuration=     2
   0.33333300  0.66666600  0.25000000
   0.66666600  0.33333300  0.25000000
   0.14357688  0.28715476  0.25000000
   0.28715476  0.14357688  0.25000000
   0.14357688  0.85642212  0.25000000
   0.85642212  0.14357688  0.25000000
   0.71284424  0.85642212  0.25000000
   0.85642212  0.71284424  0.25000000
BC3                                     
           1
     4.466900    2.578966   -0.000000
    -4.466900    2.578966    0.000000
     0.000000   -0.000000   14.994173
   B    C 
   2   6
Direct configuration=     3
   0.33333300  0.66666600  0.25000000
   0.66666600  0.33333300  0.25000000
   0.15878424  0.31756947  0.25000000
   0.31756947  0.15878424  0.25000000
   0.15878424  0.84121476  0.25000000
   0.84121476  0.15878424  0.25000000
   0.68242953  0.84121476  0.25000000
   0.84121476  0.68242953  0.25000000
BC3                                     
           1
     4.467010    2.579029   -0.000000
    -4.467010    2.579029    0.000000
     0.000000   -0.000000   14.994217
   B    C 
   2   6
Direct configuration=     4
   0.33333300  0.66666600  0.25000000
   0.66666600  0.33333300  0.25000000
   0.15884471  0.31769042  0.25000000
   0.31769042  0.15884471  0.25000000
   0.15884471  0.84115429  0.25000000
   0.84115429  0.15884471  0.25000000
   0.68230858  0.84115429  0.25000000
   0.84115429  0.68230858  0.25000000
BC3                                     
           1
     4.498781    2.597372   -0.000000
    -4.498781    2.597372    0.000000
     0.000000    0.000000   14.980677
   B    C 
   2   6
Direct configuration=     5
   0.33333300  0.66666600  0.25000000
   0.66666600  0.33333300  0.25000000
   0.15866387  0.31732874  0.25000000
   0.31732874  0.15866387  0.25000000
   0.15866387  0.84133513  0.25000000
   0.84133513  0.15866387  0.25000000
   0.68267026  0.84133513  0.25000000
   0.84133513  0.68267026  0.25000000
BC3                                     
           1
     4.480261    2.586680   -0.000000
    -4.480261    2.586680    0.000000
     0.000000   -0.000000   14.988569
   B    C 
   2   6
Direct configuration=     6
   0.33333300  0.66666600  0.25000000
   0.66666600  0.33333300  0.25000000
   0.15876854  0.31753807  0.25000000
   0.31753807  0.15876854  0.25000000
   0.15876854  0.84123046  0.25000000
   0.84123046  0.15876854  0.25000000
   0.68246093  0.84123046  0.25000000
   0.84123046  0.68246093  0.25000000
BC3                                     
           1
     4.480498    2.586816   -0.000000
    -4.480498    2.586816    0.000000
     0.000000   -0.000000   14.975985
   B    C 
   2   6
Direct configuration=     7
   0.33333300  0.66666600  0.25000000
   0.66666600  0.33333300  0.25000000
   0.15859958  0.31720016  0.25000000
   0.31720016  0.15859958  0.25000000
   0.15859958  0.84139942  0.25000000
   0.84139942  0.15859958  0.25000000
   0.68279884  0.84139942  0.25000000
   0.84139942  0.68279884  0.25000000
BC3                                     
           1
     4.480395    2.586757   -0.000000
    -4.480395    2.586757    0.000000
     0.000000   -0.000000   14.981456
   B    C 
   2   6
Direct configuration=     8
   0.33333300  0.66666600  0.25000000
   0.66666600  0.33333300  0.25000000
   0.15867303  0.31734706  0.25000000
   0.31734706  0.15867303  0.25000000
   0.15867303  0.84132597  0.25000000
   0.84132597  0.15867303  0.25000000
   0.68265194  0.84132597  0.25000000
   0.84132597  0.68265194  0.25000000
BC3                                     
           1
     4.480443    2.586785   -0.000000
    -4.480443    2.586785    0.000000
     0.000000   -0.000000   14.967946
   B    C 
   2   6
Direct configuration=     9
   0.33333300  0.66666600  0.25000000
   0.66666600  0.33333300  0.25000000
   0.15867864  0.31735827  0.25000000
   0.31735827  0.15867864  0.25000000
   0.15867864  0.84132036  0.25000000
   0.84132036  0.15867864  0.25000000
   0.68264073  0.84132036  0.25000000
   0.84132036  0.68264073  0.25000000
BC3                                     
           1
     4.480586    2.586867   -0.000000
    -4.480586    2.586867   -0.000000
     0.000000   -0.000000   14.927418
   B    C 
   2   6
Direct configuration=    10
   0.33333300  0.66666600  0.25000000
   0.66666600  0.33333300  0.25000000
   0.15869546  0.31739193  0.25000000
   0.31739193  0.15869546  0.25000000
   0.15869546  0.84130354  0.25000000
   0.84130354  0.15869546  0.25000000
   0.68260707  0.84130354  0.25000000
   0.84130354  0.68260707  0.25000000
BC3                                     
           1
     4.480872    2.587032   -0.000000
    -4.480872    2.587032   -0.000000
     0.000000   -0.000000   14.846360
   B    C 
   2   6
Direct configuration=    11
   0.33333300  0.66666600  0.25000000
   0.66666600  0.33333300  0.25000000
   0.15872912  0.31745923  0.25000000
   0.31745923  0.15872912  0.25000000
   0.15872912  0.84126988  0.25000000
   0.84126988  0.15872912  0.25000000
   0.68253977  0.84126988  0.25000000
   0.84126988  0.68253977  0.25000000
BC3                                     
           1
     4.481444    2.587363   -0.000000
    -4.481444    2.587363   -0.000000
     0.000000   -0.000000   14.684245
   B    C 
   2   6
Direct configuration=    12
   0.33333300  0.66666600  0.25000000
   0.66666600  0.33333300  0.25000000
   0.15879642  0.31759383  0.25000000
   0.31759383  0.15879642  0.25000000
   0.15879642  0.84120258  0.25000000
   0.84120258  0.15879642  0.25000000
   0.68240517  0.84120258  0.25000000
   0.84120258  0.68240517  0.25000000
BC3                                     
           1
     4.482589    2.588024   -0.000000
    -4.482589    2.588024   -0.000000
     0.000000   -0.000000   14.360015
   B    C 
   2   6
Direct configuration=    13
   0.33333300  0.66666600  0.25000000
   0.66666600  0.33333300  0.25000000
   0.15893100  0.31786300  0.25000000
   0.31786300  0.15893100  0.25000000
   0.15893100  0.84106800  0.25000000
   0.84106800  0.15893100  0.25000000
   0.68213600  0.84106800  0.25000000
   0.84106800  0.68213600  0.25000000
BC3                                     
           1
     4.482555    2.588004   -0.000000
    -4.482555    2.588004   -0.000000
     0.000000   -0.000000   14.356538
   B    C 
   2   6
Direct configuration=    14
   0.33333300  0.66666600  0.25000000
   0.66666600  0.33333300  0.25000000
   0.15892865  0.31785830  0.25000000
   0.31785830  0.15892865  0.25000000
   0.15892865  0.84107035  0.25000000
   0.84107035  0.15892865  0.25000000
   0.68214070  0.84107035  0.25000000
   0.84107035  0.68214070  0.25000000
BC3                                     
           1
     4.482455    2.587946   -0.000000
    -4.482455    2.587946   -0.000000
     0.000000   -0.000000   14.346108
   B    C 
   2   6
Direct configuration=    15
   0.33333300  0.66666600  0.25000000
   0.66666600  0.33333300  0.25000000
   0.15892160  0.31784419  0.25000000
   0.31784419  0.15892160  0.25000000
   0.15892160  0.84107740  0.25000000
   0.84107740  0.15892160  0.25000000
   0.68215481  0.84107740  0.25000000
   0.84107740  0.68215481  0.25000000
BC3                                     
           1
     4.482254    2.587830   -0.000000
    -4.482254    2.587830   -0.000000
     0.000000   -0.000000   14.325248
   B    C 
   2   6
Direct configuration=    16
   0.33333300  0.66666600  0.25000000
   0.66666600  0.33333300  0.25000000
   0.15890749  0.31781598  0.25000000
   0.31781598  0.15890749  0.25000000
   0.15890749  0.84109151  0.25000000
   0.84109151  0.15890749  0.25000000
   0.68218302  0.84109151  0.25000000
   0.84109151  0.68218302  0.25000000
BC3                                     
           1
     4.481851    2.587598   -0.000000
    -4.481851    2.587598   -0.000000
     0.000000   -0.000000   14.283528
   B    C 
   2   6
Direct configuration=    17
   0.33333300  0.66666600  0.25000000
   0.66666600  0.33333300  0.25000000
   0.15887928  0.31775956  0.25000000
   0.31775956  0.15887928  0.25000000
   0.15887928  0.84111972  0.25000000
   0.84111972  0.15887928  0.25000000
   0.68223944  0.84111972  0.25000000
   0.84111972  0.68223944  0.25000000
BC3                                     
           1
     4.481047    2.587134   -0.000000
    -4.481047    2.587134   -0.000000
     0.000000   -0.000000   14.200088
   B    C 
   2   6
Direct configuration=    18
   0.33333300  0.66666600  0.25000000
   0.66666600  0.33333300  0.25000000
   0.15882285  0.31764671  0.25000000
   0.31764671  0.15882285  0.25000000
   0.15882285  0.84117615  0.25000000
   0.84117615  0.15882285  0.25000000
   0.68235229  0.84117615  0.25000000
   0.84117615  0.68235229  0.25000000
BC3                                     
           1
     4.479439    2.586205   -0.000000
    -4.479439    2.586205   -0.000000
     0.000000   -0.000000   14.033207
   B    C 
   2   6
Direct configuration=    19
   0.33333300  0.66666600  0.25000000
   0.66666600  0.33333300  0.25000000
   0.15870998  0.31742096  0.25000000
   0.31742096  0.15870998  0.25000000
   0.15870998  0.84128902  0.25000000
   0.84128902  0.15870998  0.25000000
   0.68257804  0.84128902  0.25000000
   0.84128902  0.68257804  0.25000000
BC3                                     
           1
     4.476222    2.584348   -0.000000
    -4.476222    2.584348   -0.000000
     0.000000   -0.000000   13.699446
   B    C 
   2   6
Direct configuration=    20
   0.33333300  0.66666600  0.25000000
   0.66666600  0.33333300  0.25000000
   0.15848415  0.31696931  0.25000000
   0.31696931  0.15848415  0.25000000
   0.15848415  0.84151485  0.25000000
   0.84151485  0.15848415  0.25000000
   0.68302969  0.84151485  0.25000000
   0.84151485  0.68302969  0.25000000
BC3                                     
           1
     4.478169    2.585472   -0.000000
    -4.478169    2.585472   -0.000000
     0.000000   -0.000000   13.901483
   B    C 
   2   6
Direct configuration=    21
   0.33333300  0.66666600  0.25000000
   0.66666600  0.33333300  0.25000000
   0.15862095  0.31724291  0.25000000
   0.31724291  0.15862095  0.25000000
   0.15862095  0.84137805  0.25000000
   0.84137805  0.15862095  0.25000000
   0.68275609  0.84137805  0.25000000
   0.84137805  0.68275609  0.25000000
BC3                                     
           1
     4.478650    2.585750   -0.000000
    -4.478650    2.585750   -0.000000
     0.000000   -0.000000   13.829047
   B    C 
   2   6
Direct configuration=    22
   0.33333300  0.66666600  0.25000000
   0.66666600  0.33333300  0.25000000
   0.15861103  0.31722305  0.25000000
   0.31722305  0.15861103  0.25000000
   0.15861103  0.84138797  0.25000000
   0.84138797  0.15861103  0.25000000
   0.68277595  0.84138797  0.25000000
   0.84138797  0.68277595  0.25000000
BC3                                     
           1
     4.480093    2.586583   -0.000000
    -4.480093    2.586583   -0.000000
     0.000000   -0.000000   13.611740
   B    C 
   2   6
Direct configuration=    23
   0.33333300  0.66666600  0.25000000
   0.66666600  0.33333300  0.25000000
   0.15858125  0.31716350  0.25000000
   0.31716350  0.15858125  0.25000000
   0.15858125  0.84141775  0.25000000
   0.84141775  0.15858125  0.25000000
   0.68283550  0.84141775  0.25000000
   0.84141775  0.68283550  0.25000000
BC3                                     
           1
     4.482979    2.588249   -0.000000
    -4.482979    2.588249   -0.000000
     0.000000   -0.000000   13.177125
   B    C 
   2   6
Direct configuration=    24
   0.33333300  0.66666600  0.25000000
   0.66666600  0.33333300  0.25000000
   0.15852171  0.31704442  0.25000000
   0.31704442  0.15852171  0.25000000
   0.15852171  0.84147729  0.25000000
   0.84147729  0.15852171  0.25000000
   0.68295458  0.84147729  0.25000000
   0.84147729  0.68295458  0.25000000
BC3                                     
           1
     4.488752    2.591582   -0.000000
    -4.488752    2.591582   -0.000000
     0.000000   -0.000000   12.307897
   B    C 
   2   6
Direct configuration=    25
   0.33333300  0.66666600  0.25000000
   0.66666600  0.33333300  0.25000000
   0.15840271  0.31680643  0.25000000
   0.31680643  0.15840271  0.25000000
   0.15840271  0.84159629  0.25000000
   0.84159629  0.15840271  0.25000000
   0.68319257  0.84159629  0.25000000
   0.84159629  0.68319257  0.25000000
BC3                                     
           1
     4.500296    2.598247   -0.000000
    -4.500296    2.598247   -0.000000
     0.000000   -0.000000   10.569439
   B    C 
   2   6
Direct configuration=    26
   0.33333300  0.66666600  0.25000000
   0.66666600  0.33333300  0.25000000
   0.15816503  0.31633105  0.25000000
   0.31633105  0.15816503  0.25000000
   0.15816503  0.84183397  0.25000000
   0.84183397  0.15816503  0.25000000
   0.68366795  0.84183397  0.25000000
   0.84183397  0.68366795  0.25000000
BC3                                     
           1
     4.493409    2.594271   -0.000000
    -4.493409    2.594271   -0.000000
     0.000000   -0.000000   11.606579
   B    C 
   2   6
Direct configuration=    27
   0.33333300  0.66666600  0.25000000
   0.66666600  0.33333300  0.25000000
   0.15830646  0.31661393  0.25000000
   0.31661393  0.15830646  0.25000000
   0.15830646  0.84169254  0.25000000
   0.84169254  0.15830646  0.25000000
   0.68338507  0.84169254  0.25000000
   0.84169254  0.68338507  0.25000000
BC3                                     
           1
     4.493483    2.594314   -0.000000
    -4.493483    2.594314   -0.000000
     0.000000   -0.000000   11.569890
   B    C 
   2   6
Direct configuration=    28
   0.33333300  0.66666600  0.25000000
   0.66666600  0.33333300  0.25000000
   0.15830659  0.31661419  0.25000000
   0.31661419  0.15830659  0.25000000
   0.15830659  0.84169241  0.25000000
   0.84169241  0.15830659  0.25000000
   0.68338481  0.84169241  0.25000000
   0.84169241  0.68338481  0.25000000
BC3                                     
           1
     4.493706    2.594442   -0.000000
    -4.493706    2.594442   -0.000000
     0.000000   -0.000000   11.459824
   B    C 
   2   6
Direct configuration=    29
   0.33333300  0.66666600  0.25000000
   0.66666600  0.33333300  0.25000000
   0.15830698  0.31661495  0.25000000
   0.31661495  0.15830698  0.25000000
   0.15830698  0.84169202  0.25000000
   0.84169202  0.15830698  0.25000000
   0.68338405  0.84169202  0.25000000
   0.84169202  0.68338405  0.25000000
BC3                                     
           1
     4.494152    2.594700   -0.000000
    -4.494152    2.594700   -0.000000
     0.000000   -0.000000   11.239693
   B    C 
   2   6
Direct configuration=    30
   0.33333300  0.66666600  0.25000000
   0.66666600  0.33333300  0.25000000
   0.15830775  0.31661649  0.25000000
   0.31661649  0.15830775  0.25000000
   0.15830775  0.84169125  0.25000000
   0.84169125  0.15830775  0.25000000
   0.68338251  0.84169125  0.25000000
   0.84169125  0.68338251  0.25000000
BC3                                     
           1
     4.495044    2.595215   -0.000000
    -4.495044    2.595215   -0.000000
     0.000000   -0.000000   10.799430
   B    C 
   2   6
Direct configuration=    31
   0.33333300  0.66666600  0.25000000
   0.66666600  0.33333300  0.25000000
   0.15830928  0.31661957  0.25000000
   0.31661957  0.15830928  0.25000000
   0.15830928  0.84168972  0.25000000
   0.84168972  0.15830928  0.25000000
   0.68337943  0.84168972  0.25000000
   0.84168972  0.68337943  0.25000000
BC3                                     
           1
     4.496828    2.596245   -0.000000
    -4.496828    2.596245   -0.000000
     0.000000   -0.000000    9.918903
   B    C 
   2   6
Direct configuration=    32
   0.33333300  0.66666600  0.25000000
   0.66666600  0.33333300  0.25000000
   0.15831236  0.31662571  0.25000000
   0.31662571  0.15831236  0.25000000
   0.15831236  0.84168664  0.25000000
   0.84168664  0.15831236  0.25000000
   0.68337329  0.84168664  0.25000000
   0.84168664  0.68337329  0.25000000
BC3                                     
           1
     4.500397    2.598305   -0.000000
    -4.500397    2.598305   -0.000000
     0.000000   -0.000000    8.157850
   B    C 
   2   6
Direct configuration=    33
   0.33333300  0.66666600  0.25000000
   0.66666600  0.33333300  0.25000000
   0.15831850  0.31663800  0.25000000
   0.31663800  0.15831850  0.25000000
   0.15831850  0.84168050  0.25000000
   0.84168050  0.15831850  0.25000000
   0.68336100  0.84168050  0.25000000
   0.84168050  0.68336100  0.25000000
BC3                                     
           1
     4.498192    2.597032   -0.000000
    -4.498192    2.597032   -0.000000
     0.000000   -0.000000    9.245809
   B    C 
   2   6
Direct configuration=    34
   0.33333300  0.66666600  0.25000000
   0.66666600  0.33333300  0.25000000
   0.15831471  0.31663042  0.25000000
   0.31663042  0.15831471  0.25000000
   0.15831471  0.84168429  0.25000000
   0.84168429  0.15831471  0.25000000
   0.68336858  0.84168429  0.25000000
   0.84168429  0.68336858  0.25000000
BC3                                     
           1
     4.494232    2.594746   -0.000000
    -4.494232    2.594746   -0.000000
     0.000000   -0.000000    9.080492
   B    C 
   2   6
Direct configuration=    35
   0.33333300  0.66666600  0.25000000
   0.66666600  0.33333300  0.25000000
   0.15838379  0.31676858  0.25000000
   0.31676858  0.15838379  0.25000000
   0.15838379  0.84161521  0.25000000
   0.84161521  0.15838379  0.25000000
   0.68323042  0.84161521  0.25000000
   0.84161521  0.68323042  0.25000000
BC3                                     
           1
     4.482351    2.587886   -0.000000
    -4.482351    2.587886   -0.000000
     0.000000   -0.000000    8.584542
   B    C 
   2   6
Direct configuration=    36
   0.33333300  0.66666600  0.25000000
   0.66666600  0.33333300  0.25000000
   0.15859122  0.31718344  0.25000000
   0.31718344  0.15859122  0.25000000
   0.15859122  0.84140778  0.25000000
   0.84140778  0.15859122  0.25000000
   0.68281556  0.84140778  0.25000000
   0.84140778  0.68281556  0.25000000
BC3                                     
           1
     4.479957    2.586504   -0.000000
    -4.479957    2.586504   -0.000000
     0.000000   -0.000000    8.484633
   B    C 
   2   6
Direct configuration=    37
   0.33333300  0.66666600  0.25000000
   0.66666600  0.33333300  0.25000000
   0.15863312  0.31726723  0.25000000
   0.31726723  0.15863312  0.25000000
   0.15863312  0.84136588  0.25000000
   0.84136588  0.15863312  0.25000000
   0.68273177  0.84136588  0.25000000
   0.84136588  0.68273177  0.25000000
BC3                                     
           1
     4.480068    2.586568   -0.000000
    -4.480068    2.586568   -0.000000
     0.000000   -0.000000    8.489270
   B    C 
   2   6
Direct configuration=    38
   0.33333300  0.66666600  0.25000000
   0.66666600  0.33333300  0.25000000
   0.15863117  0.31726334  0.25000000
   0.31726334  0.15863117  0.25000000
   0.15863117  0.84136783  0.25000000
   0.84136783  0.15863117  0.25000000
   0.68273566  0.84136783  0.25000000
   0.84136783  0.68273566  0.25000000
BC3                                     
           1
     4.481209    2.587227   -0.000000
    -4.481209    2.587227   -0.000000
     0.000000   -0.000000    8.536906
   B    C 
   2   6
Direct configuration=    39
   0.33333300  0.66666600  0.25000000
   0.66666600  0.33333300  0.25000000
   0.15861119  0.31722337  0.25000000
   0.31722337  0.15861119  0.25000000
   0.15861119  0.84138781  0.25000000
   0.84138781  0.15861119  0.25000000
   0.68277563  0.84138781  0.25000000
   0.84138781  0.68277563  0.25000000
BC3                                     
           1
     4.480796    2.586989   -0.000000
    -4.480796    2.586989   -0.000000
     0.000000   -0.000000    8.519661
   B    C 
   2   6
Direct configuration=    40
   0.33333300  0.66666600  0.25000000
   0.66666600  0.33333300  0.25000000
   0.15861842  0.31723784  0.25000000
   0.31723784  0.15861842  0.25000000
   0.15861842  0.84138058  0.25000000
   0.84138058  0.15861842  0.25000000
   0.68276116  0.84138058  0.25000000
   0.84138058  0.68276116  0.25000000
BC3                                     
           1
     4.480432    2.586779   -0.000000
    -4.480432    2.586779   -0.000000
     0.000000   -0.000000    8.504465
   B    C 
   2   6
Direct configuration=    41
   0.33333300  0.66666600  0.25000000
   0.66666600  0.33333300  0.25000000
   0.15862479  0.31725059  0.25000000
   0.31725059  0.15862479  0.25000000
   0.15862479  0.84137421  0.25000000
   0.84137421  0.15862479  0.25000000
   0.68274841  0.84137421  0.25000000
   0.84137421  0.68274841  0.25000000
BC3                                     
           1
     4.480250    2.586673   -0.000000
    -4.480250    2.586673   -0.000000
     0.000000   -0.000000    8.496867
   B    C 
   2   6
Direct configuration=    42
   0.33333300  0.66666600  0.25000000
   0.66666600  0.33333300  0.25000000
   0.15862798  0.31725696  0.25000000
   0.31725696  0.15862798  0.25000000
   0.15862798  0.84137102  0.25000000
   0.84137102  0.15862798  0.25000000
   0.68274204  0.84137102  0.25000000
   0.84137102  0.68274204  0.25000000
BC3                                     
           1
     4.480137    2.586608   -0.000000
    -4.480137    2.586608   -0.000000
     0.000000   -0.000000    8.492125
   B    C 
   2   6
Direct configuration=    43
   0.33333300  0.66666600  0.25000000
   0.66666600  0.33333300  0.25000000
   0.15862997  0.31726094  0.25000000
   0.31726094  0.15862997  0.25000000
   0.15862997  0.84136903  0.25000000
   0.84136903  0.15862997  0.25000000
   0.68273806  0.84136903  0.25000000
   0.84136903  0.68273806  0.25000000
BC3                                     
           1
     4.480375    2.586745   -0.000000
    -4.480375    2.586745   -0.000000
     0.000000   -0.000000    8.488422
   B    C 
   2   6
Direct configuration=    44
   0.33333300  0.66666600  0.25000000
   0.66666600  0.33333300  0.25000000
   0.15866497  0.31733094  0.25000000
   0.31733094  0.15866497  0.25000000
   0.15866497  0.84133403  0.25000000
   0.84133403  0.15866497  0.25000000
   0.68266806  0.84133403  0.25000000
   0.84133403  0.68266806  0.25000000
BC3                                     
           1
     4.480581    2.586865   -0.000000
    -4.480581    2.586865   -0.000000
     0.000000   -0.000000    8.485206
   B    C 
   2   6
Direct configuration=    45
   0.33333300  0.66666600  0.25000000
   0.66666600  0.33333300  0.25000000
   0.15869536  0.31739173  0.25000000
   0.31739173  0.15869536  0.25000000
   0.15869536  0.84130364  0.25000000
   0.84130364  0.15869536  0.25000000
   0.68260727  0.84130364  0.25000000
   0.84130364  0.68260727  0.25000000
