BC3                                     
           1
     4.481422    2.587350    0.000000
    -4.481422    2.587350    0.000000
     0.000000    0.000000   15.000000
   B    C 
   2   6
Direct configuration=     1
   0.33333300  0.66666600  0.25000000
   0.66666600  0.33333300  0.25000000
   0.16666600  0.33333300  0.25000000
   0.33333300  0.16666600  0.25000000
   0.16666600  0.83333300  0.25000000
   0.83333300  0.16666600  0.25000000
   0.66666600  0.83333300  0.25000000
   0.83333300  0.66666600  0.25000000
BC3                                     
           1
     4.439634    2.563224   -0.000000
    -4.439634    2.563224    0.000000
     0.000000   -0.000000   14.983231
   B    C 
   2   6
Direct configuration=     2
   0.33333300  0.66666600  0.25000000
   0.66666600  0.33333300  0.25000000
   0.14357688  0.28715476  0.25000000
   0.28715476  0.14357688  0.25000000
   0.14357688  0.85642212  0.25000000
   0.85642212  0.14357688  0.25000000
   0.71284424  0.85642212  0.25000000
   0.85642212  0.71284424  0.25000000
BC3                                     
           1
     4.466900    2.578966   -0.000000
    -4.466900    2.578966    0.000000
     0.000000   -0.000000   14.994173
   B    C 
   2   6
Direct configuration=     3
   0.33333300  0.66666600  0.25000000
   0.66666600  0.33333300  0.25000000
   0.15878424  0.31756947  0.25000000
   0.31756947  0.15878424  0.25000000
   0.15878424  0.84121476  0.25000000
   0.84121476  0.15878424  0.25000000
   0.68242953  0.84121476  0.25000000
   0.84121476  0.68242953  0.25000000
BC3                                     
           1
     4.467010    2.579029   -0.000000
    -4.467010    2.579029    0.000000
     0.000000   -0.000000   14.994217
   B    C 
   2   6
Direct configuration=     4
   0.33333300  0.66666600  0.25000000
   0.66666600  0.33333300  0.25000000
   0.15884471  0.31769042  0.25000000
   0.31769042  0.15884471  0.25000000
   0.15884471  0.84115429  0.25000000
   0.84115429  0.15884471  0.25000000
   0.68230858  0.84115429  0.25000000
   0.84115429  0.68230858  0.25000000
BC3                                     
           1
     4.498781    2.597372   -0.000000
    -4.498781    2.597372    0.000000
     0.000000    0.000000   14.980677
   B    C 
   2   6
Direct configuration=     5
   0.33333300  0.66666600  0.25000000
   0.66666600  0.33333300  0.25000000
   0.15866387  0.31732874  0.25000000
   0.31732874  0.15866387  0.25000000
   0.15866387  0.84133513  0.25000000
   0.84133513  0.15866387  0.25000000
   0.68267026  0.84133513  0.25000000
   0.84133513  0.68267026  0.25000000
BC3                                     
           1
     4.480261    2.586680   -0.000000
    -4.480261    2.586680    0.000000
     0.000000   -0.000000   14.988569
   B    C 
   2   6
Direct configuration=     6
   0.33333300  0.66666600  0.25000000
   0.66666600  0.33333300  0.25000000
   0.15876854  0.31753807  0.25000000
   0.31753807  0.15876854  0.25000000
   0.15876854  0.84123046  0.25000000
   0.84123046  0.15876854  0.25000000
   0.68246093  0.84123046  0.25000000
   0.84123046  0.68246093  0.25000000
BC3                                     
           1
     4.480498    2.586816   -0.000000
    -4.480498    2.586816    0.000000
     0.000000   -0.000000   14.975985
   B    C 
   2   6
Direct configuration=     7
   0.33333300  0.66666600  0.25000000
   0.66666600  0.33333300  0.25000000
   0.15859958  0.31720016  0.25000000
   0.31720016  0.15859958  0.25000000
   0.15859958  0.84139942  0.25000000
   0.84139942  0.15859958  0.25000000
   0.68279884  0.84139942  0.25000000
   0.84139942  0.68279884  0.25000000
BC3                                     
           1
     4.480395    2.586757   -0.000000
    -4.480395    2.586757    0.000000
     0.000000   -0.000000   14.981456
   B    C 
   2   6
Direct configuration=     8
   0.33333300  0.66666600  0.25000000
   0.66666600  0.33333300  0.25000000
   0.15867303  0.31734706  0.25000000
   0.31734706  0.15867303  0.25000000
   0.15867303  0.84132597  0.25000000
   0.84132597  0.15867303  0.25000000
   0.68265194  0.84132597  0.25000000
   0.84132597  0.68265194  0.25000000
BC3                                     
           1
     4.480443    2.586785   -0.000000
    -4.480443    2.586785    0.000000
     0.000000   -0.000000   14.967946
   B    C 
   2   6
Direct configuration=     9
   0.33333300  0.66666600  0.25000000
   0.66666600  0.33333300  0.25000000
   0.15867864  0.31735827  0.25000000
   0.31735827  0.15867864  0.25000000
   0.15867864  0.84132036  0.25000000
   0.84132036  0.15867864  0.25000000
   0.68264073  0.84132036  0.25000000
   0.84132036  0.68264073  0.25000000
BC3                                     
           1
     4.480586    2.586867   -0.000000
    -4.480586    2.586867   -0.000000
     0.000000   -0.000000   14.927418
   B    C 
   2   6
Direct configuration=    10
   0.33333300  0.66666600  0.25000000
   0.66666600  0.33333300  0.25000000
   0.15869546  0.31739193  0.25000000
   0.31739193  0.15869546  0.25000000
   0.15869546  0.84130354  0.25000000
   0.84130354  0.15869546  0.25000000
   0.68260707  0.84130354  0.25000000
   0.84130354  0.68260707  0.25000000
BC3                                     
           1
     4.480872    2.587032   -0.000000
    -4.480872    2.587032   -0.000000
     0.000000   -0.000000   14.846360
   B    C 
   2   6
Direct configuration=    11
   0.33333300  0.66666600  0.25000000
   0.66666600  0.33333300  0.25000000
   0.15872912  0.31745923  0.25000000
   0.31745923  0.15872912  0.25000000
   0.15872912  0.84126988  0.25000000
   0.84126988  0.15872912  0.25000000
   0.68253977  0.84126988  0.25000000
   0.84126988  0.68253977  0.25000000
BC3                                     
           1
     4.481444    2.587363   -0.000000
    -4.481444    2.587363   -0.000000
     0.000000   -0.000000   14.684245
   B    C 
   2   6
Direct configuration=    12
   0.33333300  0.66666600  0.25000000
   0.66666600  0.33333300  0.25000000
   0.15879642  0.31759383  0.25000000
   0.31759383  0.15879642  0.25000000
   0.15879642  0.84120258  0.25000000
   0.84120258  0.15879642  0.25000000
   0.68240517  0.84120258  0.25000000
   0.84120258  0.68240517  0.25000000
