BC3                                     
           1
     4.481422    2.587350    0.000000
    -4.481422    2.587350    0.000000
     0.000000    0.000000   15.000000
   B    C 
   2   6
Direct configuration=     1
   0.33333300  0.66666600  0.25000000
   0.66666600  0.33333300  0.25000000
   0.16666600  0.33333300  0.25000000
   0.33333300  0.16666600  0.25000000
   0.16666600  0.83333300  0.25000000
   0.83333300  0.16666600  0.25000000
   0.66666600  0.83333300  0.25000000
   0.83333300  0.66666600  0.25000000
BC3                                     
           1
     4.439471    2.563130    0.000000
    -4.439471    2.563130   -0.000000
    -0.000000   -0.000000   14.982908
   B    C 
   2   6
Direct configuration=     2
   0.33333300  0.66666600  0.25000000
   0.66666600  0.33333300  0.25000000
   0.14357683  0.28715466  0.25000000
   0.28715466  0.14357683  0.25000000
   0.14357683  0.85642217  0.25000000
   0.85642217  0.14357683  0.25000000
   0.71284434  0.85642217  0.25000000
   0.85642217  0.71284434  0.25000000
BC3                                     
           1
     4.466845    2.578934    0.000000
    -4.466845    2.578934   -0.000000
    -0.000000   -0.000000   14.994061
   B    C 
   2   6
Direct configuration=     3
   0.33333300  0.66666600  0.25000000
   0.66666600  0.33333300  0.25000000
   0.15878526  0.31757153  0.25000000
   0.31757153  0.15878526  0.25000000
   0.15878526  0.84121374  0.25000000
   0.84121374  0.15878526  0.25000000
   0.68242747  0.84121374  0.25000000
   0.84121374  0.68242747  0.25000000
BC3                                     
           1
     4.466954    2.578997    0.000000
    -4.466954    2.578997   -0.000000
    -0.000000   -0.000000   14.994105
   B    C 
   2   6
Direct configuration=     4
   0.33333300  0.66666600  0.25000000
   0.66666600  0.33333300  0.25000000
   0.15884551  0.31769203  0.25000000
   0.31769203  0.15884551  0.25000000
   0.15884551  0.84115349  0.25000000
   0.84115349  0.15884551  0.25000000
   0.68230697  0.84115349  0.25000000
   0.84115349  0.68230697  0.25000000
BC3                                     
           1
     4.498798    2.597382    0.000000
    -4.498798    2.597382   -0.000000
    -0.000000   -0.000000   14.980210
   B    C 
   2   6
Direct configuration=     5
   0.33333300  0.66666600  0.25000000
   0.66666600  0.33333300  0.25000000
   0.15866367  0.31732834  0.25000000
   0.31732834  0.15866367  0.25000000
   0.15866367  0.84133533  0.25000000
   0.84133533  0.15866367  0.25000000
   0.68267066  0.84133533  0.25000000
   0.84133533  0.68267066  0.25000000
BC3                                     
           1
     4.480239    2.586667    0.000000
    -4.480239    2.586667   -0.000000
    -0.000000   -0.000000   14.988308
   B    C 
   2   6
Direct configuration=     6
   0.33333300  0.66666600  0.25000000
   0.66666600  0.33333300  0.25000000
   0.15876890  0.31753880  0.25000000
   0.31753880  0.15876890  0.25000000
   0.15876890  0.84123010  0.25000000
   0.84123010  0.15876890  0.25000000
   0.68246020  0.84123010  0.25000000
   0.84123010  0.68246020  0.25000000
BC3                                     
           1
     4.480474    2.586803    0.000000
    -4.480474    2.586803   -0.000000
    -0.000000   -0.000000   14.975425
   B    C 
   2   6
Direct configuration=     7
   0.33333300  0.66666600  0.25000000
   0.66666600  0.33333300  0.25000000
   0.15859991  0.31720082  0.25000000
   0.31720082  0.15859991  0.25000000
   0.15859991  0.84139909  0.25000000
   0.84139909  0.15859991  0.25000000
   0.68279818  0.84139909  0.25000000
   0.84139909  0.68279818  0.25000000
BC3                                     
           1
     4.480372    2.586744    0.000000
    -4.480372    2.586744   -0.000000
    -0.000000   -0.000000   14.981052
   B    C 
   2   6
Direct configuration=     8
   0.33333300  0.66666600  0.25000000
   0.66666600  0.33333300  0.25000000
   0.15867372  0.31734845  0.25000000
   0.31734845  0.15867372  0.25000000
   0.15867372  0.84132528  0.25000000
   0.84132528  0.15867372  0.25000000
   0.68265055  0.84132528  0.25000000
   0.84132528  0.68265055  0.25000000
BC3                                     
           1
     4.480406    2.586764    0.000000
    -4.480406    2.586764   -0.000000
    -0.000000   -0.000000   14.967310
   B    C 
   2   6
Direct configuration=     9
   0.33333300  0.66666600  0.25000000
   0.66666600  0.33333300  0.25000000
   0.15868020  0.31736140  0.25000000
   0.31736140  0.15868020  0.25000000
   0.15868020  0.84131880  0.25000000
   0.84131880  0.15868020  0.25000000
   0.68263760  0.84131880  0.25000000
   0.84131880  0.68263760  0.25000000
BC3                                     
           1
     4.480510    2.586824    0.000000
    -4.480510    2.586824   -0.000000
    -0.000000   -0.000000   14.926082
   B    C 
   2   6
Direct configuration=    10
   0.33333300  0.66666600  0.25000000
   0.66666600  0.33333300  0.25000000
   0.15869963  0.31740026  0.25000000
   0.31740026  0.15869963  0.25000000
   0.15869963  0.84129937  0.25000000
   0.84129937  0.15869963  0.25000000
   0.68259874  0.84129937  0.25000000
   0.84129937  0.68259874  0.25000000
BC3                                     
           1
     4.480718    2.586944    0.000000
    -4.480718    2.586944   -0.000000
    -0.000000   -0.000000   14.843625
   B    C 
   2   6
Direct configuration=    11
   0.33333300  0.66666600  0.25000000
   0.66666600  0.33333300  0.25000000
   0.15873848  0.31747796  0.25000000
   0.31747796  0.15873848  0.25000000
   0.15873848  0.84126052  0.25000000
   0.84126052  0.15873848  0.25000000
   0.68252104  0.84126052  0.25000000
   0.84126052  0.68252104  0.25000000
BC3                                     
           1
     4.481134    2.587183    0.000000
    -4.481134    2.587183   -0.000000
    -0.000000   -0.000000   14.678713
   B    C 
   2   6
Direct configuration=    12
   0.33333300  0.66666600  0.25000000
   0.66666600  0.33333300  0.25000000
   0.15881619  0.31763337  0.25000000
   0.31763337  0.15881619  0.25000000
   0.15881619  0.84118281  0.25000000
   0.84118281  0.15881619  0.25000000
   0.68236563  0.84118281  0.25000000
   0.84118281  0.68236563  0.25000000
BC3                                     
           1
     4.481965    2.587663    0.000000
    -4.481965    2.587663   -0.000000
    -0.000000   -0.000000   14.348888
   B    C 
   2   6
Direct configuration=    13
   0.33333300  0.66666600  0.25000000
   0.66666600  0.33333300  0.25000000
   0.15897158  0.31794416  0.25000000
   0.31794416  0.15897158  0.25000000
   0.15897158  0.84102742  0.25000000
   0.84102742  0.15897158  0.25000000
   0.68205484  0.84102742  0.25000000
   0.84102742  0.68205484  0.25000000
BC3                                     
           1
     4.481942    2.587650    0.000000
    -4.481942    2.587650   -0.000000
    -0.000000   -0.000000   14.345816
   B    C 
   2   6
Direct configuration=    14
   0.33333300  0.66666600  0.25000000
   0.66666600  0.33333300  0.25000000
   0.15896977  0.31794055  0.25000000
   0.31794055  0.15896977  0.25000000
   0.15896977  0.84102923  0.25000000
   0.84102923  0.15896977  0.25000000
   0.68205845  0.84102923  0.25000000
   0.84102923  0.68205845  0.25000000
BC3                                     
           1
     4.481876    2.587612    0.000000
    -4.481876    2.587612   -0.000000
    -0.000000   -0.000000   14.336599
   B    C 
   2   6
Direct configuration=    15
   0.33333300  0.66666600  0.25000000
   0.66666600  0.33333300  0.25000000
   0.15896435  0.31792971  0.25000000
   0.31792971  0.15896435  0.25000000
   0.15896435  0.84103465  0.25000000
   0.84103465  0.15896435  0.25000000
   0.68206929  0.84103465  0.25000000
   0.84103465  0.68206929  0.25000000
BC3                                     
           1
     4.481742    2.587535    0.000000
    -4.481742    2.587535   -0.000000
    -0.000000   -0.000000   14.318164
   B    C 
   2   6
Direct configuration=    16
   0.33333300  0.66666600  0.25000000
   0.66666600  0.33333300  0.25000000
   0.15895351  0.31790803  0.25000000
   0.31790803  0.15895351  0.25000000
   0.15895351  0.84104549  0.25000000
   0.84104549  0.15895351  0.25000000
   0.68209097  0.84104549  0.25000000
   0.84104549  0.68209097  0.25000000
BC3                                     
           1
     4.481475    2.587380    0.000000
    -4.481475    2.587380   -0.000000
    -0.000000   -0.000000   14.281296
   B    C 
   2   6
Direct configuration=    17
   0.33333300  0.66666600  0.25000000
   0.66666600  0.33333300  0.25000000
   0.15893183  0.31786467  0.25000000
   0.31786467  0.15893183  0.25000000
   0.15893183  0.84106717  0.25000000
   0.84106717  0.15893183  0.25000000
   0.68213433  0.84106717  0.25000000
   0.84106717  0.68213433  0.25000000
BC3                                     
           1
     4.480940    2.587072    0.000000
    -4.480940    2.587072   -0.000000
    -0.000000    0.000000   14.207559
   B    C 
   2   6
Direct configuration=    18
   0.33333300  0.66666600  0.25000000
   0.66666600  0.33333300  0.25000000
   0.15888847  0.31777794  0.25000000
   0.31777794  0.15888847  0.25000000
   0.15888847  0.84111053  0.25000000
   0.84111053  0.15888847  0.25000000
   0.68222106  0.84111053  0.25000000
   0.84111053  0.68222106  0.25000000
BC3                                     
           1
     4.479871    2.586455    0.000000
    -4.479871    2.586455   -0.000000
    -0.000000    0.000000   14.060085
   B    C 
   2   6
Direct configuration=    19
   0.33333300  0.66666600  0.25000000
   0.66666600  0.33333300  0.25000000
   0.15880173  0.31760447  0.25000000
   0.31760447  0.15880173  0.25000000
   0.15880173  0.84119727  0.25000000
   0.84119727  0.15880173  0.25000000
   0.68239453  0.84119727  0.25000000
   0.84119727  0.68239453  0.25000000
