       N       E                     dE             d eps       ncg     rms          rms(c)
DAV:   1    -0.728232749978E+02   -0.72823E+02   -0.69452E+00  5040   0.411E+00    0.133E+01
DAV:   2    -0.691583467976E+02    0.36649E+01   -0.44556E+00  6204   0.386E+00    0.750E+00
DAV:   3    -0.673007427314E+02    0.18576E+01   -0.19530E+00  5976   0.227E+00    0.179E+00
DAV:   4    -0.672661339126E+02    0.34609E-01   -0.23209E-01  5808   0.627E-01    0.106E+00
DAV:   5    -0.672315763488E+02    0.34558E-01   -0.10917E-02  5916   0.161E-01    0.391E-01
DAV:   6    -0.672199533976E+02    0.11623E-01   -0.11500E-02  5832   0.182E-01    0.511E-01
