 vasp.5.4.4.18Apr17-6-g9f103f2a35 (build Mar 30 2023 15:39:25) complex          
  
 executed on             LinuxIFC date 2023.06.19  11:25:27
 running on   12 total cores
 distrk:  each k-point on   12 cores,    1 groups
 distr:  one band on NCORES_PER_BAND=   1 cores,   12 groups


--------------------------------------------------------------------------------------------------------


 INCAR:
 POTCAR:    PAW_PBE B 06Sep2000                   
 POTCAR:    PAW_PBE C 08Apr2002                   

 ----------------------------------------------------------------------------- 
|                                                                             |
|           W    W    AA    RRRRR   N    N  II  N    N   GGGG   !!!           |
|           W    W   A  A   R    R  NN   N  II  NN   N  G    G  !!!           |
|           W    W  A    A  R    R  N N  N  II  N N  N  G       !!!           |
|           W WW W  AAAAAA  RRRRR   N  N N  II  N  N N  G  GGG   !            |
|           WW  WW  A    A  R   R   N   NN  II  N   NN  G    G                |
|           W    W  A    A  R    R  N    N  II  N    N   GGGG   !!!           |
|                                                                             |
|      For optimal performance we recommend to set                            |
|        NCORE= 4 - approx SQRT( number of cores)                             |
|      NCORE specifies how many cores store one orbital (NPAR=cpu/NCORE).     |
|      This setting can  greatly improve the performance of VASP for DFT.     |
|      The default,   NCORE=1            might be grossly inefficient         |
|      on modern multi-core architectures or massively parallel machines.     |
|      Do your own testing !!!!                                               |
|      Unfortunately you need to use the default for GW and RPA calculations. |
|      (for HF NCORE is supported but not extensively tested yet)             |
|                                                                             |
 ----------------------------------------------------------------------------- 

 POTCAR:    PAW_PBE B 06Sep2000                   
   SHA256 =  a32ced30f5ae56fd4d10b4325ff17eb3e4e38ee0f4288bc219fb012fddfa6e97 B/
   COPYR  = (c) Copyright 06Sep2000 Georg Kresse                                
   COPYR  = This file is part of the software VASP. Any use, copying, and all ot
   COPYR  = If you do not have a valid VASP license, you may not use, copy or di
   VRHFIN =B: s2p1                                                              
   LEXCH  = PE                                                                  
   EATOM  =    71.1703 eV,    5.2309 Ry                                         
                                                                                
   TITEL  = PAW_PBE B 06Sep2000                                                 
   LULTRA =        F    use ultrasoft PP ?                                      
   IUNSCR =        1    unscreen: 0-lin 1-nonlin 2-no                           
   RPACOR =    1.200    partial core radius                                     
   POMASS =   10.811; ZVAL   =    3.000    mass and valenz                      
   RCORE  =    1.700    outmost cutoff radius                                   
   RWIGS  =    1.710; RWIGS  =    0.905    wigner-seitz radius (au A)           
   ENMAX  =  318.614; ENMIN  =  238.960 eV                                      
   ICORE  =        2    local potential                                         
   LCOR   =        T    correct aug charges                                     
   LPAW   =        T    paw PP                                                  
   EAUG   =  535.514                                                            
   DEXC   =    0.000                                                            
   RMAX   =    1.732    core radius for proj-oper                               
   RAUG   =    1.300    factor for augmentation sphere                          
   RDEP   =    1.757    radius for radial grids                                 
   RDEPT  =    1.436    core radius for aug-charge                              
                                                                                
   Atomic configuration                                                         
    4 entries                                                                   
     n  l   j            E        occ.                                          
     1  0  0.50      -180.5896   2.0000                                         
     2  0  0.50        -9.4431   2.0000                                         
     2  1  0.50        -3.6068   1.0000                                         
     3  2  1.50        -4.0817   0.0000                                         
   Description                                                                  
     l       E           TYP  RCUT    TYP  RCUT                                 
     0     -9.4430752     23  1.500                                             
     0      0.8675899     23  1.500                                             
     1     -3.6067955     23  1.700                                             
     1      6.1086146     23  1.700                                             
     2     -4.0817478      7  1.700                                             
  local pseudopotential read in
  partial core-charges read in
  partial kinetic energy density read in
  atomic valenz-charges read in
  non local Contribution for L=           0  read in
    real space projection operators read in
  non local Contribution for L=           0  read in
    real space projection operators read in
  non local Contribution for L=           1  read in
    real space projection operators read in
  non local Contribution for L=           1  read in
    real space projection operators read in
    PAW grid and wavefunctions read in
 
   number of l-projection  operators is LMAX  =           4
   number of lm-projection operators is LMMAX =           8
 
 POTCAR:    PAW_PBE C 08Apr2002                   
   SHA256 =  253f7b50bb8d59471dbedb8285d89021f4a42ed1a2c5d38a03a736e69125dd95 C/
   COPYR  = (c) Copyright 08Apr2002 Georg Kresse                                
   COPYR  = This file is part of the software VASP. Any use, copying, and all ot
   COPYR  = If you do not have a valid VASP license, you may not use, copy or di
   VRHFIN =C: s2p2                                                              
   LEXCH  = PE                                                                  
   EATOM  =   147.1560 eV,   10.8157 Ry                                         
                                                                                
   TITEL  = PAW_PBE C 08Apr2002                                                 
   LULTRA =        F    use ultrasoft PP ?                                      
   IUNSCR =        1    unscreen: 0-lin 1-nonlin 2-no                           
   RPACOR =    1.200    partial core radius                                     
   POMASS =   12.011; ZVAL   =    4.000    mass and valenz                      
   RCORE  =    1.500    outmost cutoff radius                                   
   RWIGS  =    1.630; RWIGS  =    0.863    wigner-seitz radius (au A)           
   ENMAX  =  400.000; ENMIN  =  300.000 eV                                      
   ICORE  =        2    local potential                                         
   LCOR   =        T    correct aug charges                                     
   LPAW   =        T    paw PP                                                  
   EAUG   =  644.873                                                            
   DEXC   =    0.000                                                            
   RMAX   =    1.529    core radius for proj-oper                               
   RAUG   =    1.300    factor for augmentation sphere                          
   RDEP   =    1.501    radius for radial grids                                 
   RDEPT  =    1.300    core radius for aug-charge                              
                                                                                
   Atomic configuration                                                         
    4 entries                                                                   
     n  l   j            E        occ.                                          
     1  0  0.50      -273.3789   2.0000                                         
     2  0  0.50       -13.7508   2.0000                                         
     2  1  0.50        -5.2854   2.0000                                         
     3  2  1.50        -5.4423   0.0000                                         
   Description                                                                  
     l       E           TYP  RCUT    TYP  RCUT                                 
     0    -13.7508458     23  1.200                                             
     0     -8.2022199     23  1.200                                             
     1     -5.2854383     23  1.500                                             
     1     34.0145650     23  1.500                                             
     2     -5.4423304      7  1.500                                             
  local pseudopotential read in
  partial core-charges read in
  partial kinetic energy density read in
  atomic valenz-charges read in
  non local Contribution for L=           0  read in
    real space projection operators read in
  non local Contribution for L=           0  read in
    real space projection operators read in
  non local Contribution for L=           1  read in
    real space projection operators read in
  non local Contribution for L=           1  read in
    real space projection operators read in
    PAW grid and wavefunctions read in
 
   number of l-projection  operators is LMAX  =           4
   number of lm-projection operators is LMMAX =           8
 
  PAW_PBE B 06Sep2000                   :
 energy of atom  1       EATOM=  -71.1703
 kinetic energy error for atom=    0.0015 (will be added to EATOM!!)
  PAW_PBE C 08Apr2002                   :
 energy of atom  2       EATOM= -147.1560
 kinetic energy error for atom=    0.0116 (will be added to EATOM!!)
 
 
 POSCAR: BC3 with lattice parameter 5.174Ang, len
  positions in direct lattice
  velocities in cartesian coordinates
 exchange correlation table for  LEXCH =        8
   RHO(1)=    0.500       N(1)  =     2000
   RHO(2)=  100.500       N(2)  =     4000
 


--------------------------------------------------------------------------------------------------------


 ion  position               nearest neighbor table
   1  0.333  0.667  0.250-   3 1.57   7 1.57   5 1.57
   2  0.667  0.333  0.250-   4 1.57   8 1.57   6 1.57
   3  0.159  0.317  0.250-   6 1.42   4 1.42   1 1.57
   4  0.317  0.159  0.250-   5 1.42   3 1.42   2 1.57
   5  0.159  0.841  0.250-   4 1.42   8 1.42   1 1.57
   6  0.841  0.159  0.250-   3 1.42   7 1.42   2 1.57
   7  0.683  0.841  0.250-   6 1.42   8 1.42   1 1.57
   8  0.841  0.683  0.250-   5 1.42   7 1.42   2 1.57
 
  LATTYP: Found a hexagonal cell.
 ALAT       =     5.1740377035
 C/A-ratio  =     1.6467258045
  
  Lattice vectors:
  
 A1 = (   4.4808484340,   2.5870188517,   0.0000000000)
 A2 = (  -4.4808484340,   2.5870188517,   0.0000000000)
 A3 = (   0.0000000000,   0.0000000000,   8.5202213998)


Analysis of symmetry for initial positions (statically):
=====================================================================
 Subroutine PRICEL returns:
 Original cell was already a primitive cell.
 

 Routine SETGRP: Setting up the symmetry group for a 
 hexagonal supercell.


 Subroutine GETGRP returns: Found 24 space group operations
 (whereof 12 operations were pure point group operations)
 out of a pool of 24 trial point group operations.


The static configuration has the point symmetry C_6v.
 The point group associated with its full space group is D_6h.


Analysis of symmetry for dynamics (positions and initial velocities):
=====================================================================
 Subroutine PRICEL returns:
 Original cell was already a primitive cell.
 

 Routine SETGRP: Setting up the symmetry group for a 
 hexagonal supercell.


 Subroutine GETGRP returns: Found 24 space group operations
 (whereof 12 operations were pure point group operations)
 out of a pool of 24 trial point group operations.


The dynamic configuration has the point symmetry C_6v.
 The point group associated with its full space group is D_6h.


 Subroutine INISYM returns: Found 24 space group operations
 (whereof 12 operations are pure point group operations),
 and found     1 'primitive' translations



 irot  :   1
 --------------------------------------------------------------------
 isymop:   1   0   0
           0   1   0
           0   0   1

 gtrans:     0.0000000     0.0000000     0.0000000

 ptrans:     0.0000000     0.0000000     0.0000000
 
 rotmap:
 (   1->   1)  (   2->   2)  (   3->   3)  (   4->   4)  (   5->   5) 
 (   6->   6)  (   7->   7)  (   8->   8) 


 irot  :   2
 --------------------------------------------------------------------
 isymop:   1  -1   0
           1   0   0
           0   0   1

 gtrans:     0.0000000     0.0000000     0.0000000

 ptrans:     0.0000000     0.0000000     0.0000000
 
 rotmap:
 (   1->   2)  (   2->   1)  (   3->   6)  (   4->   3)  (   5->   4) 
 (   6->   7)  (   7->   8)  (   8->   5) 


 irot  :   3
 --------------------------------------------------------------------
 isymop:   0  -1   0
           1  -1   0
           0   0   1

 gtrans:     0.0000000     0.0000000     0.0000000

 ptrans:     0.0000000     0.0000000     0.0000000
 
 rotmap:
 (   1->   1)  (   2->   2)  (   3->   7)  (   4->   6)  (   5->   3) 
 (   6->   8)  (   7->   5)  (   8->   4) 


 irot  :   4
 --------------------------------------------------------------------
 isymop:  -1   0   0
           0  -1   0
           0   0   1

 gtrans:     0.0000000     0.0000000     0.0000000

 ptrans:     0.0000000     0.0000000     0.0000000
 
 rotmap:
 (   1->   2)  (   2->   1)  (   3->   8)  (   4->   7)  (   5->   6) 
 (   6->   5)  (   7->   4)  (   8->   3) 


 irot  :   5
 --------------------------------------------------------------------
 isymop:  -1   1   0
          -1   0   0
           0   0   1

 gtrans:     0.0000000     0.0000000     0.0000000

 ptrans:     0.0000000     0.0000000     0.0000000
 
 rotmap:
 (   1->   1)  (   2->   2)  (   3->   5)  (   4->   8)  (   5->   7) 
 (   6->   4)  (   7->   3)  (   8->   6) 


 irot  :   6
 --------------------------------------------------------------------
 isymop:   0   1   0
          -1   1   0
           0   0   1

 gtrans:     0.0000000     0.0000000     0.0000000

 ptrans:     0.0000000     0.0000000     0.0000000
 
 rotmap:
 (   1->   2)  (   2->   1)  (   3->   4)  (   4->   5)  (   5->   8) 
 (   6->   3)  (   7->   6)  (   8->   7) 


 irot  :   7
 --------------------------------------------------------------------
 isymop:  -1   1   0
           0   1   0
           0   0   1

 gtrans:     0.0000000     0.0000000     0.0000000

 ptrans:     0.0000000     0.0000000     0.0000000
 
 rotmap:
 (   1->   1)  (   2->   2)  (   3->   3)  (   4->   6)  (   5->   7) 
 (   6->   4)  (   7->   5)  (   8->   8) 


 irot  :   8
 --------------------------------------------------------------------
 isymop:   0   1   0
           1   0   0
           0   0   1

 gtrans:     0.0000000     0.0000000     0.0000000

 ptrans:     0.0000000     0.0000000     0.0000000
 
 rotmap:
 (   1->   2)  (   2->   1)  (   3->   4)  (   4->   3)  (   5->   6) 
 (   6->   5)  (   7->   8)  (   8->   7) 


 irot  :   9
 --------------------------------------------------------------------
 isymop:   1   0   0
           1  -1   0
           0   0   1

 gtrans:     0.0000000     0.0000000     0.0000000

 ptrans:     0.0000000     0.0000000     0.0000000
 
 rotmap:
 (   1->   1)  (   2->   2)  (   3->   5)  (   4->   4)  (   5->   3) 
 (   6->   8)  (   7->   7)  (   8->   6) 


 irot  :  10
 --------------------------------------------------------------------
 isymop:   1  -1   0
           0  -1   0
           0   0   1

 gtrans:     0.0000000     0.0000000     0.0000000

 ptrans:     0.0000000     0.0000000     0.0000000
 
 rotmap:
 (   1->   2)  (   2->   1)  (   3->   8)  (   4->   5)  (   5->   4) 
 (   6->   7)  (   7->   6)  (   8->   3) 


 irot  :  11
 --------------------------------------------------------------------
 isymop:   0  -1   0
          -1   0   0
           0   0   1

 gtrans:     0.0000000     0.0000000     0.0000000

 ptrans:     0.0000000     0.0000000     0.0000000
 
 rotmap:
 (   1->   1)  (   2->   2)  (   3->   7)  (   4->   8)  (   5->   5) 
 (   6->   6)  (   7->   3)  (   8->   4) 


 irot  :  12
 --------------------------------------------------------------------
 isymop:  -1   0   0
          -1   1   0
           0   0   1

 gtrans:     0.0000000     0.0000000     0.0000000

 ptrans:     0.0000000     0.0000000     0.0000000
 
 rotmap:
 (   1->   2)  (   2->   1)  (   3->   6)  (   4->   7)  (   5->   8) 
 (   6->   3)  (   7->   4)  (   8->   5) 


 irot  :  13
 --------------------------------------------------------------------
 isymop:  -1   0   0
           0  -1   0
           0   0  -1

 gtrans:     0.0000000     0.0000000     0.5000000

 ptrans:     0.0000000     0.0000000     0.0000000
 
 rotmap:
 (   1->   2)  (   2->   1)  (   3->   8)  (   4->   7)  (   5->   6) 
 (   6->   5)  (   7->   4)  (   8->   3) 


 irot  :  14
 --------------------------------------------------------------------
 isymop:  -1   1   0
          -1   0   0
           0   0  -1

 gtrans:     0.0000000     0.0000000     0.5000000

 ptrans:     0.0000000     0.0000000     0.0000000
 
 rotmap:
 (   1->   1)  (   2->   2)  (   3->   5)  (   4->   8)  (   5->   7) 
 (   6->   4)  (   7->   3)  (   8->   6) 


 irot  :  15
 --------------------------------------------------------------------
 isymop:   0   1   0
          -1   1   0
           0   0  -1

 gtrans:     0.0000000     0.0000000     0.5000000

 ptrans:     0.0000000     0.0000000     0.0000000
 
 rotmap:
 (   1->   2)  (   2->   1)  (   3->   4)  (   4->   5)  (   5->   8) 
 (   6->   3)  (   7->   6)  (   8->   7) 


 irot  :  16
 --------------------------------------------------------------------
 isymop:   1   0   0
           0   1   0
           0   0  -1

 gtrans:     0.0000000     0.0000000     0.5000000

 ptrans:     0.0000000     0.0000000     0.0000000
 
 rotmap:
 (   1->   1)  (   2->   2)  (   3->   3)  (   4->   4)  (   5->   5) 
 (   6->   6)  (   7->   7)  (   8->   8) 


 irot  :  17
 --------------------------------------------------------------------
 isymop:   1  -1   0
           1   0   0
           0   0  -1

 gtrans:     0.0000000     0.0000000     0.5000000

 ptrans:     0.0000000     0.0000000     0.0000000
 
 rotmap:
 (   1->   2)  (   2->   1)  (   3->   6)  (   4->   3)  (   5->   4) 
 (   6->   7)  (   7->   8)  (   8->   5) 


 irot  :  18
 --------------------------------------------------------------------
 isymop:   0  -1   0
           1  -1   0
           0   0  -1

 gtrans:     0.0000000     0.0000000     0.5000000

 ptrans:     0.0000000     0.0000000     0.0000000
 
 rotmap:
 (   1->   1)  (   2->   2)  (   3->   7)  (   4->   6)  (   5->   3) 
 (   6->   8)  (   7->   5)  (   8->   4) 


 irot  :  19
 --------------------------------------------------------------------
 isymop:   1  -1   0
           0  -1   0
           0   0  -1

 gtrans:     0.0000000     0.0000000     0.5000000

 ptrans:     0.0000000     0.0000000     0.0000000
 
 rotmap:
 (   1->   2)  (   2->   1)  (   3->   8)  (   4->   5)  (   5->   4) 
 (   6->   7)  (   7->   6)  (   8->   3) 


 irot  :  20
 --------------------------------------------------------------------
 isymop:   0  -1   0
          -1   0   0
           0   0  -1

 gtrans:     0.0000000     0.0000000     0.5000000

 ptrans:     0.0000000     0.0000000     0.0000000
 
 rotmap:
 (   1->   1)  (   2->   2)  (   3->   7)  (   4->   8)  (   5->   5) 
 (   6->   6)  (   7->   3)  (   8->   4) 


 irot  :  21
 --------------------------------------------------------------------
 isymop:  -1   0   0
          -1   1   0
           0   0  -1

 gtrans:     0.0000000     0.0000000     0.5000000

 ptrans:     0.0000000     0.0000000     0.0000000
 
 rotmap:
 (   1->   2)  (   2->   1)  (   3->   6)  (   4->   7)  (   5->   8) 
 (   6->   3)  (   7->   4)  (   8->   5) 


 irot  :  22
 --------------------------------------------------------------------
 isymop:  -1   1   0
           0   1   0
           0   0  -1

 gtrans:     0.0000000     0.0000000     0.5000000

 ptrans:     0.0000000     0.0000000     0.0000000
 
 rotmap:
 (   1->   1)  (   2->   2)  (   3->   3)  (   4->   6)  (   5->   7) 
 (   6->   4)  (   7->   5)  (   8->   8) 


 irot  :  23
 --------------------------------------------------------------------
 isymop:   0   1   0
           1   0   0
           0   0  -1

 gtrans:     0.0000000     0.0000000     0.5000000

 ptrans:     0.0000000     0.0000000     0.0000000
 
 rotmap:
 (   1->   2)  (   2->   1)  (   3->   4)  (   4->   3)  (   5->   6) 
 (   6->   5)  (   7->   8)  (   8->   7) 


 irot  :  24
 --------------------------------------------------------------------
 isymop:   1   0   0
           1  -1   0
           0   0  -1

 gtrans:     0.0000000     0.0000000     0.5000000

 ptrans:     0.0000000     0.0000000     0.0000000
 
 rotmap:
 (   1->   1)  (   2->   2)  (   3->   5)  (   4->   4)  (   5->   3) 
 (   6->   8)  (   7->   7)  (   8->   6) 
 
 
 KPOINTS: K-points for BC3                        

Automatic generation of k-mesh.
Space group operators:
 irot       det(A)        alpha          n_x          n_y          n_z        tau_x        tau_y        tau_z
    1     1.000000     0.000000     1.000000     0.000000     0.000000     0.000000     0.000000     0.000000
    2     1.000000    60.000000     0.000000     0.000000    -1.000000     0.000000     0.000000     0.000000
    3     1.000000   120.000000     0.000000     0.000000    -1.000000     0.000000     0.000000     0.000000
    4     1.000000   180.000000     0.000000     0.000000     1.000000     0.000000     0.000000     0.000000
    5     1.000000   120.000000     0.000000     0.000000     1.000000     0.000000     0.000000     0.000000
    6     1.000000    60.000000     0.000000     0.000000     1.000000     0.000000     0.000000     0.000000
    7    -1.000000   180.000000     0.866025     0.500000     0.000000     0.000000     0.000000     0.000000
    8    -1.000000   180.000000     1.000000     0.000000     0.000000     0.000000     0.000000     0.000000
    9    -1.000000   180.000000     0.866025    -0.500000     0.000000     0.000000     0.000000     0.000000
   10    -1.000000   180.000000     0.500000    -0.866025     0.000000     0.000000     0.000000     0.000000
   11    -1.000000   180.000000     0.000000     1.000000     0.000000     0.000000     0.000000     0.000000
   12    -1.000000   180.000000    -0.500000    -0.866025     0.000000     0.000000     0.000000     0.000000
   13    -1.000000     0.000000     1.000000     0.000000     0.000000     0.000000     0.000000     0.500000
   14    -1.000000    60.000000     0.000000     0.000000    -1.000000     0.000000     0.000000     0.500000
   15    -1.000000   120.000000     0.000000     0.000000    -1.000000     0.000000     0.000000     0.500000
   16    -1.000000   180.000000     0.000000     0.000000     1.000000     0.000000     0.000000     0.500000
   17    -1.000000   120.000000     0.000000     0.000000     1.000000     0.000000     0.000000     0.500000
   18    -1.000000    60.000000     0.000000     0.000000     1.000000     0.000000     0.000000     0.500000
   19     1.000000   180.000000     0.866025     0.500000     0.000000     0.000000     0.000000     0.500000
   20     1.000000   180.000000     1.000000     0.000000     0.000000     0.000000     0.000000     0.500000
   21     1.000000   180.000000     0.866025    -0.500000     0.000000     0.000000     0.000000     0.500000
   22     1.000000   180.000000     0.500000    -0.866025     0.000000     0.000000     0.000000     0.500000
   23     1.000000   180.000000     0.000000     1.000000     0.000000     0.000000     0.000000     0.500000
   24     1.000000   180.000000    -0.500000    -0.866025     0.000000     0.000000     0.000000     0.500000
 
 Subroutine IBZKPT returns following result:
 ===========================================
 
 Found     19 irreducible k-points:
 
 Following reciprocal coordinates:
            Coordinates               Weight
  0.000000  0.000000  0.000000      1.000000
  0.083333  0.000000  0.000000      6.000000
  0.166667  0.000000  0.000000      6.000000
  0.250000 -0.000000  0.000000      6.000000
  0.333333 -0.000000  0.000000      6.000000
  0.416667  0.000000  0.000000      6.000000
  0.500000 -0.000000  0.000000      3.000000
  0.083333  0.083333  0.000000      6.000000
  0.166667  0.083333  0.000000     12.000000
  0.250000  0.083333  0.000000     12.000000
  0.333333  0.083333  0.000000     12.000000
  0.416667  0.083333  0.000000     12.000000
  0.166667  0.166667  0.000000      6.000000
  0.250000  0.166667  0.000000     12.000000
  0.333333  0.166667  0.000000     12.000000
  0.416667  0.166667  0.000000      6.000000
  0.250000  0.250000  0.000000      6.000000
  0.333333  0.250000  0.000000     12.000000
  0.333333  0.333333  0.000000      2.000000
 
 Following cartesian coordinates:
            Coordinates               Weight
  0.000000  0.000000  0.000000      1.000000
  0.009299  0.016106  0.000000      6.000000
  0.018598  0.032212  0.000000      6.000000
  0.027897  0.048318  0.000000      6.000000
  0.037195  0.064424  0.000000      6.000000
  0.046494  0.080530  0.000000      6.000000
  0.055793  0.096636  0.000000      3.000000
  0.000000  0.032212  0.000000      6.000000
  0.009299  0.048318  0.000000     12.000000
  0.018598  0.064424  0.000000     12.000000
  0.027897  0.080530  0.000000     12.000000
  0.037195  0.096636  0.000000     12.000000
  0.000000  0.064424  0.000000      6.000000
  0.009299  0.080530  0.000000     12.000000
  0.018598  0.096636  0.000000     12.000000
  0.027897  0.112742  0.000000      6.000000
  0.000000  0.096636  0.000000      6.000000
  0.009299  0.112742  0.000000     12.000000
  0.000000  0.128848  0.000000      2.000000
 

 ----------------------------------------------------------------------------- 
|                                                                             |
|           W    W    AA    RRRRR   N    N  II  N    N   GGGG   !!!           |
|           W    W   A  A   R    R  NN   N  II  NN   N  G    G  !!!           |
|           W    W  A    A  R    R  N N  N  II  N N  N  G       !!!           |
|           W WW W  AAAAAA  RRRRR   N  N N  II  N  N N  G  GGG   !            |
|           WW  WW  A    A  R   R   N   NN  II  N   NN  G    G                |
|           W    W  A    A  R    R  N    N  II  N    N   GGGG   !!!           |
|                                                                             |
|      The number of bands has been changed from the values supplied          |
|      in the INCAR file. This is a result of running the parallel version.   |
|      The orbitals not found in the WAVECAR file will be initialized with    |
|      random numbers, which is usually adequate. For correlated              |
|      calculations, however, you should redo the groundstate calculation.    |
|      I found NBANDS    =      128  now  NBANDS  =     132                   |
|                                                                             |
 ----------------------------------------------------------------------------- 



--------------------------------------------------------------------------------------------------------




 Dimension of arrays:
   k-points           NKPTS =     19   k-points in BZ     NKDIM =     19   number of bands    NBANDS=    132
   number of dos      NEDOS =   2400   number of ions     NIONS =      8
   non local maximal  LDIM  =      4   non local SUM 2l+1 LMDIM =      8
   total plane-waves  NPLWV =  77760
   max r-space proj   IRMAX =      1   max aug-charges    IRDMAX=   6338
   dimension x,y,z NGX =    36 NGY =   36 NGZ =   60
   dimension x,y,z NGXF=    72 NGYF=   72 NGZF=  120
   support grid    NGXF=    72 NGYF=   72 NGZF=  120
   ions per type =               2   6
   NGX,Y,Z   is equivalent  to a cutoff of  11.57, 11.57, 11.71 a.u.
   NGXF,Y,Z  is equivalent  to a cutoff of  23.13, 23.13, 23.41 a.u.

 SYSTEM =  BC3-optical                             
 POSCAR =  BC3 with lattice parameter 5.174Ang, len

 Startparameter for this run:
   NWRITE =      3    write-flag & timer
   PREC   = accura    normal or accurate (medium, high low for compatibility)
   ISTART =      1    job   : 0-new  1-cont  2-samecut
   ICHARG =      2    charge: 1-file 2-atom 10-const
   ISPIN  =      1    spin polarized calculation?
   LNONCOLLINEAR =      F non collinear calculations
   LSORBIT =      F    spin-orbit coupling
   INIWAV =      1    electr: 0-lowe 1-rand  2-diag
   LASPH  =      F    aspherical Exc in radial PAW
   METAGGA=      F    non-selfconsistent MetaGGA calc.

 Electronic Relaxation 1
   ENCUT  =  450.0 eV  33.07 Ry    5.75 a.u.   8.95  8.95 14.74*2*pi/ulx,y,z
   ENINI  =  450.0     initial cutoff
   ENAUG  =  644.9 eV  augmentation charge cutoff
   NELM   =     60;   NELMIN=  2; NELMDL=  0     # of ELM steps 
   EDIFF  = 0.1E-07   stopping-criterion for ELM
   LREAL  =      F    real-space projection
   NLSPLINE    = F    spline interpolate recip. space projectors
   LCOMPAT=      F    compatible to vasp.4.4
   GGA_COMPAT  = T    GGA compatible to vasp.4.4-vasp.4.6
   LMAXPAW     = -100 max onsite density
   LMAXMIX     =    2 max onsite mixed and CHGCAR
   VOSKOWN=      0    Vosko Wilk Nusair interpolation
   ROPT   =    0.00000   0.00000
 Ionic relaxation
   EDIFFG = 0.1E-06   stopping-criterion for IOM
   NSW    =      0    number of steps for IOM
   NBLOCK =      1;   KBLOCK =      1    inner block; outer block 
   IBRION =     -1    ionic relax: 0-MD 1-quasi-New 2-CG
   NFREE  =      0    steps in history (QN), initial steepest desc. (CG)
   ISIF   =      2    stress and relaxation
   IWAVPR =     10    prediction:  0-non 1-charg 2-wave 3-comb
   ISYM   =      2    0-nonsym 1-usesym 2-fastsym
   LCORR  =      T    Harris-Foulkes like correction to forces

   POTIM  = 0.5000    time-step for ionic-motion
   TEIN   =    0.0    initial temperature
   TEBEG  =    0.0;   TEEND  =   0.0 temperature during run
   SMASS  =  -3.00    Nose mass-parameter (am)
   estimated Nose-frequenzy (Omega)   =  0.10E-29 period in steps =****** mass=  -0.612E-27a.u.
   SCALEE = 1.0000    scale energy and forces
   NPACO  =    256;   APACO  = 16.0  distance and # of slots for P.C.
   PSTRESS=    0.0 pullay stress

  Mass of Ions in am
   POMASS =  10.81 12.01
  Ionic Valenz
   ZVAL   =   3.00  4.00
  Atomic Wigner-Seitz radii
   RWIGS  =  -1.00 -1.00
  virtual crystal weights 
   VCA    =   1.00  1.00
   NELECT =      30.0000    total number of electrons
   NUPDOWN=      -1.0000    fix difference up-down

 DOS related values:
   EMIN   =  10.00;   EMAX   =-10.00  energy-range for DOS
   EFERMI =   0.00
   ISMEAR =     0;   SIGMA  =   0.01  broadening in eV -4-tet -1-fermi 0-gaus

 Electronic relaxation 2 (details)
   IALGO  =     38    algorithm
   LDIAG  =      T    sub-space diagonalisation (order eigenvalues)
   LSUBROT=      F    optimize rotation matrix (better conditioning)
   TURBO    =      0    0=normal 1=particle mesh
   IRESTART =      0    0=no restart 2=restart with 2 vectors
   NREBOOT  =      0    no. of reboots
   NMIN     =      0    reboot dimension
   EREF     =   0.00    reference energy to select bands
   IMIX   =      4    mixing-type and parameters
     AMIX     =   0.40;   BMIX     =  1.00
     AMIX_MAG =   1.60;   BMIX_MAG =  1.00
     AMIN     =   0.10
     WC   =   100.;   INIMIX=   1;  MIXPRE=   1;  MAXMIX= -45

 Intra band minimization:
   WEIMIN = 0.0000     energy-eigenvalue tresh-hold
   EBREAK =  0.19E-10  absolut break condition
   DEPER  =   0.30     relativ break condition  

   TIME   =   0.40     timestep for ELM

  volume/ion in A,a.u.               =      24.69       166.63
  Fermi-wavevector in a.u.,A,eV,Ry     =   0.873444  1.650570 10.379942  0.762904
  Thomas-Fermi vector in A             =   1.992835
 
 Write flags
   LWAVE        =      T    write WAVECAR
   LDOWNSAMPLE  =      F    k-point downsampling of WAVECAR
   LCHARG       =      T    write CHGCAR
   LVTOT        =      F    write LOCPOT, total local potential
   LVHAR        =      F    write LOCPOT, Hartree potential only
   LELF         =      F    write electronic localiz. function (ELF)
   LORBIT       =      0    0 simple, 1 ext, 2 COOP (PROOUT), +10 PAW based schemes


 Dipole corrections
   LMONO  =      F    monopole corrections only (constant potential shift)
   LDIPOL =      F    correct potential (dipole corrections)
   IDIPOL =      0    1-x, 2-y, 3-z, 4-all directions 
   EPSILON=  1.0000000 bulk dielectric constant

 Exchange correlation treatment:
   GGA     =    --    GGA type
   LEXCH   =     8    internal setting for exchange type
   VOSKOWN=      0    Vosko Wilk Nusair interpolation
   LHFCALC =     F    Hartree Fock is set to
   LHFONE  =     F    Hartree Fock one center treatment
   AEXX    =    0.0000 exact exchange contribution

 Linear response parameters
   LEPSILON=     F    determine dielectric tensor
   LRPA    =     F    only Hartree local field effects (RPA)
   LNABLA  =     F    use nabla operator in PAW spheres
   LVEL    =     F    velocity operator in full k-point grid
   LINTERFAST=   F  fast interpolation
   KINTER  =     0    interpolate to denser k-point grid
   CSHIFT  =0.1000    complex shift for real part using Kramers Kronig
   OMEGAMAX=  -1.0    maximum frequency
   DEG_THRESHOLD= 0.2000000E-02 threshold for treating states as degnerate
   RTIME   =   -0.100 relaxation time in fs
  (WPLASMAI=    0.000 imaginary part of plasma frequency in eV, 0.658/RTIME)
   DFIELD  = 0.0000000 0.0000000 0.0000000 field for delta impulse in time
 
 Orbital magnetization related:
   ORBITALMAG=     F  switch on orbital magnetization
   LCHIMAG   =     F  perturbation theory with respect to B field
   DQ        =  0.001000  dq finite difference perturbation B field
   LLRAUG    =     F  two centre corrections for induced B field



--------------------------------------------------------------------------------------------------------


 Static calculation
 charge density and potential will be updated during run
 non-spin polarized calculation
 Variant of blocked Davidson
 Davidson routine will perform the subspace rotation
 perform sub-space diagonalisation
    after iterative eigenvector-optimisation
 modified Broyden-mixing scheme, WC =      100.0
 initial mixing is a Kerker type mixing with AMIX =  0.4000 and BMIX =      1.0000
 Hartree-type preconditioning will be used
 using additional bands          117
 reciprocal scheme for non local part
 use partial core corrections
 calculate Harris-corrections to forces 
   (improved forces if not selfconsistent)
 use gradient corrections 
 use of overlap-Matrix (Vanderbilt PP)
 Gauss-broadening in eV      SIGMA  =   0.01


--------------------------------------------------------------------------------------------------------


  energy-cutoff  :      450.00
  volume of cell :      197.53
      direct lattice vectors                 reciprocal lattice vectors
     4.480848434  2.587018852  0.000000000     0.111586010  0.193272654  0.000000000
    -4.480848434  2.587018852  0.000000000    -0.111586010  0.193272654  0.000000000
     0.000000000  0.000000000  8.520221400     0.000000000  0.000000000  0.117367842

  length of vectors
     5.174038000  5.174038000  8.520221400     0.223172034  0.223172034  0.117367842


 
 old parameters found on file WAVECAR:
  energy-cutoff  :      450.00
  volume of cell :      197.53
      direct lattice vectors                 reciprocal lattice vectors
     4.480848434  2.587018852  0.000000000     0.111586010  0.193272654  0.000000000
    -4.480848434  2.587018852  0.000000000    -0.111586010  0.193272654  0.000000000
     0.000000000  0.000000000  8.520221400     0.000000000  0.000000000  0.117367842

  length of vectors

 
 k-points in units of 2pi/SCALE and weight: K-points for BC3                        
   0.00000000  0.00000000  0.00000000       0.007
   0.00929883  0.01610605  0.00000000       0.042
   0.01859767  0.03221211  0.00000000       0.042
   0.02789650  0.04831816  0.00000000       0.042
   0.03719534  0.06442422  0.00000000       0.042
   0.04649417  0.08053027  0.00000000       0.042
   0.05579301  0.09663633  0.00000000       0.021
   0.00000000  0.03221211  0.00000000       0.042
   0.00929883  0.04831816  0.00000000       0.083
   0.01859767  0.06442422  0.00000000       0.083
   0.02789650  0.08053027  0.00000000       0.083
   0.03719534  0.09663633  0.00000000       0.083
   0.00000000  0.06442422  0.00000000       0.042
   0.00929883  0.08053027  0.00000000       0.083
   0.01859767  0.09663633  0.00000000       0.083
   0.02789650  0.11274238  0.00000000       0.042
   0.00000000  0.09663633  0.00000000       0.042
   0.00929883  0.11274238  0.00000000       0.083
   0.00000000  0.12884844  0.00000000       0.014
 
 k-points in reciprocal lattice and weights: K-points for BC3                        
   0.00000000  0.00000000  0.00000000       0.007
   0.08333333  0.00000000  0.00000000       0.042
   0.16666667  0.00000000  0.00000000       0.042
   0.25000000 -0.00000000  0.00000000       0.042
   0.33333333 -0.00000000  0.00000000       0.042
   0.41666667  0.00000000  0.00000000       0.042
   0.50000000 -0.00000000  0.00000000       0.021
   0.08333333  0.08333333  0.00000000       0.042
   0.16666667  0.08333333  0.00000000       0.083
   0.25000000  0.08333333  0.00000000       0.083
   0.33333333  0.08333333  0.00000000       0.083
   0.41666667  0.08333333  0.00000000       0.083
   0.16666667  0.16666667  0.00000000       0.042
   0.25000000  0.16666667  0.00000000       0.083
   0.33333333  0.16666667  0.00000000       0.083
   0.41666667  0.16666667  0.00000000       0.042
   0.25000000  0.25000000  0.00000000       0.042
   0.33333333  0.25000000  0.00000000       0.083
   0.33333333  0.33333333  0.00000000       0.014
 
 position of ions in fractional coordinates (direct lattice) 
   0.33333300  0.66666600  0.25000000
   0.66666600  0.33333300  0.25000000
   0.15869124  0.31738348  0.25000000
   0.31738348  0.15869124  0.25000000
   0.15869124  0.84130776  0.25000000
   0.84130776  0.15869124  0.25000000
   0.68261552  0.84130776  0.25000000
   0.84130776  0.68261552  0.25000000
 
 position of ions in cartesian coordinates  (Angst):
  -1.49361465  2.58701626  2.13005535
   1.49361465  2.58701626  2.13005535
  -0.71107588  1.23161429  2.13005535
   0.71107588  1.23161429  2.13005535
  -3.05870114  2.58701626  2.13005535
   3.05870114  2.58701626  2.13005535
  -0.71107588  3.94241824  2.13005535
   0.71107588  3.94241824  2.13005535
 


--------------------------------------------------------------------------------------------------------


 k-point  1 :   0.0000 0.0000 0.0000  plane waves:    4271
 k-point  2 :   0.0833 0.0000 0.0000  plane waves:    4257
 k-point  3 :   0.1667 0.0000 0.0000  plane waves:    4273
 k-point  4 :   0.2500-0.0000 0.0000  plane waves:    4286
 k-point  5 :   0.3333-0.0000 0.0000  plane waves:    4272
 k-point  6 :   0.4167 0.0000 0.0000  plane waves:    4280
 k-point  7 :   0.5000-0.0000 0.0000  plane waves:    4280
 k-point  8 :   0.0833 0.0833 0.0000  plane waves:    4273
 k-point  9 :   0.1667 0.0833 0.0000  plane waves:    4261
 k-point 10 :   0.2500 0.0833 0.0000  plane waves:    4277
 k-point 11 :   0.3333 0.0833 0.0000  plane waves:    4283
 k-point 12 :   0.4167 0.0833 0.0000  plane waves:    4292
 k-point 13 :   0.1667 0.1667 0.0000  plane waves:    4267
 k-point 14 :   0.2500 0.1667 0.0000  plane waves:    4287
 k-point 15 :   0.3333 0.1667 0.0000  plane waves:    4297
 k-point 16 :   0.4167 0.1667 0.0000  plane waves:    4305
 k-point 17 :   0.2500 0.2500 0.0000  plane waves:    4283
 k-point 18 :   0.3333 0.2500 0.0000  plane waves:    4306
 k-point 19 :   0.3333 0.3333 0.0000  plane waves:    4323

 maximum and minimum number of plane-waves per node :      4323     4257

 maximum number of plane-waves:      4323
 maximum index in each direction: 
   IXMAX=    8   IYMAX=    8   IZMAX=   14
   IXMIN=   -9   IYMIN=   -9   IZMIN=  -14


 serial   3D FFT for wavefunctions
 parallel 3D FFT for charge:
    minimum data exchange during FFTs selected (reduces bandwidth)


 total amount of memory used by VASP MPI-rank0    63997. kBytes
=======================================================================

   base      :      30000. kBytes
   nonl-proj :      11089. kBytes
   fftplans  :       2090. kBytes
   grid      :       6068. kBytes
   one-center:         24. kBytes
   wavefun   :      14726. kBytes
 
     INWAV:  cpu time    0.5112: real time    0.5881
 Broyden mixing: mesh for mixing (old mesh)
   NGX = 17   NGY = 17   NGZ = 29
  (NGX  = 72   NGY  = 72   NGZ  =120)
  gives a total of   8381 points

 initial charge density was supplied:
 charge density of overlapping atoms calculated
 number of electron      30.0000000 magnetization 
 keeping initial charge density in first step


--------------------------------------------------------------------------------------------------------


 Maximum index for augmentation-charges          403 (set IRDMAX)


--------------------------------------------------------------------------------------------------------


 First call to EWALD:  gamma=   0.304
 Maximum number of real-space cells 3x 3x 2
 Maximum number of reciprocal cells 2x 2x 4

    FEWALD:  cpu time    0.0017: real time    0.0020


--------------------------------------- Iteration      1(   1)  ---------------------------------------


    POTLOK:  cpu time    0.0369: real time    0.0383
    SETDIJ:  cpu time    0.0019: real time    0.0019
     EDDAV:  cpu time    3.5731: real time    3.5734
       DOS:  cpu time    0.0006: real time    0.0006
    CHARGE:  cpu time    0.0567: real time    0.0567
    MIXING:  cpu time    0.0010: real time    0.0010
    --------------------------------------------
      LOOP:  cpu time    3.6702: real time    3.6720

 eigenvalue-minimisations  :  5040
 total energy-change (2. order) :-0.7282327E+02  (-0.6945243E+00)
 number of electron      29.9999996 magnetization 
 augmentation part        0.5626523 magnetization 

 Broyden mixing:
  rms(total) = 0.13347E+01    rms(broyden)= 0.13343E+01
  rms(prec ) = 0.17957E+01
  weight for this iteration     100.00

 Free energy of the ion-electron system (eV)
  ---------------------------------------------------
  alpha Z        PSCENC =        25.67921176
  Ewald energy   TEWEN  =       700.27145080
  -Hartree energ DENC   =     -1524.76618073
  -exchange      EXHF   =         0.00000000
  -V(xc)+E(xc)   XCENC  =        91.14273073
  PAW double counting   =       738.13200929     -739.83780425
  entropy T*S    EENTRO =        -0.00000000
  eigenvalues    EBANDS =      -388.64859212
  atomic energy  EATOM  =      1025.20389953
  Solvation  Ediel_sol  =         0.00000000
  ---------------------------------------------------
  free energy    TOTEN  =       -72.82327500 eV

  energy without entropy =      -72.82327500  energy(sigma->0) =      -72.82327500


--------------------------------------------------------------------------------------------------------




 average (electrostatic) potential at core
  the test charge radii are     0.7672  0.6991
  (the norm of the test charge is              1.0000)
       1 -38.0355       2 -38.0355       3 -61.8204       4 -61.8204       5 -61.8204
       6 -61.8204       7 -61.8204       8 -61.8204
 
 
 
 E-fermi :  -6.3359     XC(G=0):  -5.3024     alpha+bet : -4.1680


 k-point     1 :       0.0000    0.0000    0.0000
  band No.  band energies     occupation 
      1     -22.7229      2.00000
      2     -19.0439      2.00000
      3     -19.0429      2.00000
      4     -16.6220      2.00000
      5     -16.6213      2.00000
      6     -15.2783      2.00000
      7     -13.8230      2.00000
      8     -12.0254      2.00000
      9     -10.2306      2.00000
     10      -9.5008      2.00000
     11      -9.4997      2.00000
     12      -7.2271      2.00000
     13      -7.2261      2.00000
     14      -6.3940      2.00000
     15      -6.3852      2.00000
     16      -3.3023      0.00000
     17      -2.0006      0.00000
     18      -1.9996      0.00000
     19      -0.5734      0.00000
     20       1.9957      0.00000
     21       2.5742      0.00000
     22       2.5774      0.00000
     23       3.8650      0.00000
     24       3.8676      0.00000
     25       4.0275      0.00000
     26       4.6174      0.00000
     27       6.2480      0.00000
     28       8.6032      0.00000
     29       9.1032      0.00000
     30       9.2442      0.00000
     31       9.2628      0.00000
     32       9.4176      0.00000
     33       9.4285      0.00000
     34       9.4359      0.00000
     35      10.1074      0.00000
     36      10.1404      0.00000
     37      13.0791      0.00000
     38      13.3150      0.00000
     39      13.4194      0.00000
     40      13.8067      0.00000
     41      14.4872      0.00000
     42      14.6287      0.00000
     43      14.8970      0.00000
     44      15.3068      0.00000
     45      15.4113      0.00000
     46      15.6781      0.00000
     47      15.9977      0.00000
     48      17.4667      0.00000
     49      17.7588      0.00000
     50      18.4215      0.00000
     51      18.6842      0.00000
     52      19.2187      0.00000
     53      19.8557      0.00000
     54      21.6112      0.00000
     55      22.1427      0.00000
     56      22.3551      0.00000
     57      22.7029      0.00000
     58      23.1450      0.00000
     59      23.3697      0.00000
     60      23.7587      0.00000
     61      24.1090      0.00000
     62      24.6171      0.00000
     63      24.7291      0.00000
     64      25.1635      0.00000
     65      25.9392      0.00000
     66      26.5119      0.00000
     67      26.7338      0.00000
     68      26.9367      0.00000
     69      27.2050      0.00000
     70      27.5002      0.00000
     71      27.7544      0.00000
     72      28.1577      0.00000
     73      28.4361      0.00000
     74      28.6161      0.00000
     75      29.1455      0.00000
     76      29.7026      0.00000
     77      29.7972      0.00000
     78      30.2059      0.00000
     79      30.3523      0.00000
     80      30.6243      0.00000
     81      30.9118      0.00000
     82      31.4033      0.00000
     83      32.0479      0.00000
     84      32.2061      0.00000
     85      32.6869      0.00000
     86      32.7983      0.00000
     87      32.9574      0.00000
     88      33.2483      0.00000
     89      33.6738      0.00000
     90      33.8718      0.00000
     91      34.2344      0.00000
     92      34.5420      0.00000
     93      34.8081      0.00000
     94      35.5745      0.00000
     95      36.0909      0.00000
     96      36.3116      0.00000
     97      36.5335      0.00000
     98      37.0485      0.00000
     99      37.3944      0.00000
    100      37.7036      0.00000
    101      38.3249      0.00000
    102      38.7882      0.00000
    103      39.0994      0.00000
    104      39.6004      0.00000
    105      40.1785      0.00000
    106      40.5402      0.00000
    107      41.0272      0.00000
    108      41.5191      0.00000
    109      41.8681      0.00000
    110      42.2097      0.00000
    111      42.8256      0.00000
    112      43.1145      0.00000
    113      43.9944      0.00000
    114      44.1725      0.00000
    115      44.6003      0.00000
    116      45.6646      0.00000
    117      45.7974      0.00000
    118      46.4367      0.00000
    119      47.2275      0.00000
    120      47.7073      0.00000
    121      48.7724      0.00000
    122      49.2688      0.00000
    123      50.4761      0.00000
    124      50.6755      0.00000
    125      51.3920      0.00000
    126      51.6335      0.00000
    127      52.5969      0.00000
    128      53.3907      0.00000
    129      54.8191      0.00000
    130      55.5772      0.00000
    131      56.5566      0.00000
    132      57.7793      0.00000

 k-point     2 :       0.0833    0.0000    0.0000
  band No.  band energies     occupation 
      1     -22.6991      2.00000
      2     -19.1524      2.00000
      3     -19.0795      2.00000
      4     -16.6417      2.00000
      5     -16.5354      2.00000
      6     -15.1621      2.00000
      7     -13.6940      2.00000
      8     -12.0731      2.00000
      9     -10.1926      2.00000
     10      -9.6095      2.00000
     11      -9.5195      2.00000
     12      -7.3520      2.00000
     13      -7.2868      2.00000
     14      -6.4934      2.00000
     15      -6.4081      2.00000
     16      -3.5412      0.00000
     17      -1.9410      0.00000
     18      -1.6323      0.00000
     19      -0.4975      0.00000
     20       2.0497      0.00000
     21       2.6417      0.00000
     22       2.7277      0.00000
     23       3.8992      0.00000
     24       4.0279      0.00000
     25       4.1365      0.00000
     26       4.6647      0.00000
     27       6.3003      0.00000
     28       8.1030      0.00000
     29       8.6009      0.00000
     30       8.8021      0.00000
     31       9.1712      0.00000
     32       9.6547      0.00000
     33       9.9367      0.00000
     34       9.9947      0.00000
     35      10.3306      0.00000
     36      10.4216      0.00000
     37      13.2210      0.00000
     38      13.4725      0.00000
     39      13.7823      0.00000
     40      13.9216      0.00000
     41      14.1448      0.00000
     42      14.4239      0.00000
     43      15.0069      0.00000
     44      15.2420      0.00000
     45      15.7862      0.00000
     46      15.9302      0.00000
     47      16.3496      0.00000
     48      17.1367      0.00000
     49      17.9108      0.00000
     50      18.4308      0.00000
     51      18.7702      0.00000
     52      19.2345      0.00000
     53      19.3300      0.00000
     54      21.5954      0.00000
     55      21.8726      0.00000
     56      21.9600      0.00000
     57      22.5489      0.00000
     58      22.8712      0.00000
     59      23.1945      0.00000
     60      23.5317      0.00000
     61      23.7895      0.00000
     62      24.0739      0.00000
     63      24.4664      0.00000
     64      25.0917      0.00000
     65      25.8341      0.00000
     66      25.9169      0.00000
     67      26.4334      0.00000
     68      26.6033      0.00000
     69      27.0599      0.00000
     70      27.4690      0.00000
     71      27.7870      0.00000
     72      28.2514      0.00000
     73      28.6993      0.00000
     74      28.9508      0.00000
     75      29.2082      0.00000
     76      29.4692      0.00000
     77      29.8185      0.00000
     78      30.2460      0.00000
     79      30.3973      0.00000
     80      30.7144      0.00000
     81      30.8953      0.00000
     82      31.1545      0.00000
     83      31.5564      0.00000
     84      32.0226      0.00000
     85      32.4608      0.00000
     86      32.7852      0.00000
     87      33.1336      0.00000
     88      33.6965      0.00000
     89      34.0781      0.00000
     90      34.4004      0.00000
     91      34.7540      0.00000
     92      35.0558      0.00000
     93      35.2580      0.00000
     94      35.8699      0.00000
     95      36.1751      0.00000
     96      36.6100      0.00000
     97      36.8419      0.00000
     98      37.1079      0.00000
     99      37.8950      0.00000
    100      38.1173      0.00000
    101      38.4963      0.00000
    102      38.7724      0.00000
    103      39.4284      0.00000
    104      39.9926      0.00000
    105      40.4994      0.00000
    106      40.9554      0.00000
    107      41.2940      0.00000
    108      41.4870      0.00000
    109      42.1114      0.00000
    110      42.2693      0.00000
    111      42.9110      0.00000
    112      43.2921      0.00000
    113      43.6251      0.00000
    114      44.1255      0.00000
    115      44.7928      0.00000
    116      45.4636      0.00000
    117      45.8245      0.00000
    118      46.3715      0.00000
    119      47.3016      0.00000
    120      48.3290      0.00000
    121      48.6558      0.00000
    122      49.3316      0.00000
    123      49.5883      0.00000
    124      50.5127      0.00000
    125      50.9564      0.00000
    126      51.6792      0.00000
    127      52.5178      0.00000
    128      52.7474      0.00000
    129      53.3347      0.00000
    130      54.8004      0.00000
    131      54.9768      0.00000
    132      57.1872      0.00000

 k-point     3 :       0.1667    0.0000    0.0000
  band No.  band energies     occupation 
      1     -22.6283      2.00000
      2     -19.4295      2.00000
      3     -19.1682      2.00000
      4     -16.7097      2.00000
      5     -16.2971      2.00000
      6     -14.8277      2.00000
      7     -13.3377      2.00000
      8     -12.2212      2.00000
      9     -10.0785      2.00000
     10      -9.9162      2.00000
     11      -9.5553      2.00000
     12      -7.7087      2.00000
     13      -7.4538      2.00000
     14      -6.7714      2.00000
     15      -6.4502      2.00000
     16      -3.9177      0.00000
     17      -1.8187      0.00000
     18      -1.0385      0.00000
     19      -0.1714      0.00000
     20       2.2072      0.00000
     21       2.8041      0.00000
     22       3.1626      0.00000
     23       3.9627      0.00000
     24       4.4335      0.00000
     25       4.4703      0.00000
     26       4.8187      0.00000
     27       6.4392      0.00000
     28       7.1082      0.00000
     29       8.2136      0.00000
     30       8.3785      0.00000
     31       8.4788      0.00000
     32       9.5399      0.00000
     33       9.6591      0.00000
     34       9.9206      0.00000
     35      10.5537      0.00000
     36      10.8288      0.00000
     37      12.7953      0.00000
     38      13.7642      0.00000
     39      13.9623      0.00000
     40      14.1474      0.00000
     41      14.2898      0.00000
     42      14.7494      0.00000
     43      14.9719      0.00000
     44      15.8732      0.00000
     45      16.2424      0.00000
     46      16.6410      0.00000
     47      17.4843      0.00000
     48      17.7411      0.00000
     49      17.8462      0.00000
     50      18.3354      0.00000
     51      18.8133      0.00000
     52      19.1310      0.00000
     53      19.5269      0.00000
     54      21.3718      0.00000
     55      21.5804      0.00000
     56      22.1404      0.00000
     57      22.5988      0.00000
     58      22.9074      0.00000
     59      23.0627      0.00000
     60      23.2690      0.00000
     61      23.8308      0.00000
     62      24.2102      0.00000
     63      24.5122      0.00000
     64      24.7321      0.00000
     65      25.0065      0.00000
     66      25.5244      0.00000
     67      26.1219      0.00000
     68      26.6148      0.00000
     69      26.8719      0.00000
     70      27.2634      0.00000
     71      27.7082      0.00000
     72      28.0064      0.00000
     73      28.4034      0.00000
     74      28.6459      0.00000
     75      28.9447      0.00000
     76      29.0405      0.00000
     77      29.6719      0.00000
     78      30.0115      0.00000
     79      30.3521      0.00000
     80      30.6465      0.00000
     81      31.0028      0.00000
     82      31.2323      0.00000
     83      31.5648      0.00000
     84      32.0661      0.00000
     85      32.1491      0.00000
     86      32.7318      0.00000
     87      33.3741      0.00000
     88      33.6307      0.00000
     89      33.9404      0.00000
     90      34.3579      0.00000
     91      34.7743      0.00000
     92      35.0846      0.00000
     93      35.6676      0.00000
     94      35.9259      0.00000
     95      36.1331      0.00000
     96      36.5637      0.00000
     97      37.4171      0.00000
     98      37.5678      0.00000
     99      38.1280      0.00000
    100      38.3603      0.00000
    101      38.8317      0.00000
    102      39.2727      0.00000
    103      39.5998      0.00000
    104      39.6993      0.00000
    105      40.3003      0.00000
    106      40.8321      0.00000
    107      41.3222      0.00000
    108      41.9473      0.00000
    109      42.3076      0.00000
    110      42.7800      0.00000
    111      43.1357      0.00000
    112      43.5894      0.00000
    113      44.1567      0.00000
    114      44.4928      0.00000
    115      44.9108      0.00000
    116      45.5593      0.00000
    117      46.0919      0.00000
    118      46.5701      0.00000
    119      47.1001      0.00000
    120      47.7357      0.00000
    121      48.2263      0.00000
    122      48.9336      0.00000
    123      49.5406      0.00000
    124      50.3988      0.00000
    125      50.7420      0.00000
    126      51.6475      0.00000
    127      51.9213      0.00000
    128      52.4639      0.00000
    129      53.2510      0.00000
    130      53.8901      0.00000
    131      54.4937      0.00000
    132      56.9722      0.00000

 k-point     4 :       0.2500   -0.0000    0.0000
  band No.  band energies     occupation 
      1     -22.5205      2.00000
      2     -19.7719      2.00000
      3     -19.2739      2.00000
      4     -16.8117      2.00000
      5     -15.9512      2.00000
      6     -14.3335      2.00000
      7     -12.8179      2.00000
      8     -12.4740      2.00000
      9     -10.3713      2.00000
     10      -9.8985      2.00000
     11      -9.5651      2.00000
     12      -8.2525      2.00000
     13      -7.6936      2.00000
     14      -7.1664      2.00000
     15      -6.5056      2.00000
     16      -4.2218      0.00000
     17      -1.6574      0.00000
     18      -0.5640      0.00000
     19       0.4779      0.00000
     20       2.4532      0.00000
     21       2.9622      0.00000
     22       3.8670      0.00000
     23       4.0354      0.00000
     24       4.9498      0.00000
     25       5.0596      0.00000
     26       5.1705      0.00000
     27       5.7021      0.00000
     28       6.1834      0.00000
     29       6.7866      0.00000
     30       7.9215      0.00000
     31       8.0428      0.00000
     32       8.4121      0.00000
     33       9.0853      0.00000
     34       9.7792      0.00000
     35       9.8205      0.00000
     36      10.5995      0.00000
     37      13.0764      0.00000
     38      13.2804      0.00000
     39      13.5818      0.00000
     40      14.1216      0.00000
     41      14.3166      0.00000
     42      15.1224      0.00000
     43      15.4678      0.00000
     44      16.3964      0.00000
     45      16.7435      0.00000
     46      17.1923      0.00000
     47      17.4101      0.00000
     48      17.7060      0.00000
     49      17.8764      0.00000
     50      18.6250      0.00000
     51      19.0542      0.00000
     52      19.9013      0.00000
     53      20.3032      0.00000
     54      21.1056      0.00000
     55      21.1952      0.00000
     56      21.5810      0.00000
     57      21.9414      0.00000
     58      22.3053      0.00000
     59      22.7214      0.00000
     60      23.0802      0.00000
     61      23.3357      0.00000
     62      23.4640      0.00000
     63      23.6542      0.00000
     64      24.2862      0.00000
     65      24.6695      0.00000
     66      24.8102      0.00000
     67      25.1100      0.00000
     68      25.9447      0.00000
     69      26.2847      0.00000
     70      26.9525      0.00000
     71      27.2926      0.00000
     72      27.6831      0.00000
     73      27.9551      0.00000
     74      28.3673      0.00000
     75      28.6740      0.00000
     76      28.9549      0.00000
     77      29.2706      0.00000
     78      29.9821      0.00000
     79      30.3282      0.00000
     80      30.6282      0.00000
     81      30.8649      0.00000
     82      31.2561      0.00000
     83      31.4389      0.00000
     84      31.7477      0.00000
     85      32.6369      0.00000
     86      32.9920      0.00000
     87      33.1663      0.00000
     88      33.6806      0.00000
     89      34.0379      0.00000
     90      34.2248      0.00000
     91      34.5863      0.00000
     92      34.9340      0.00000
     93      35.2493      0.00000
     94      35.7495      0.00000
     95      35.8712      0.00000
     96      36.4261      0.00000
     97      37.1283      0.00000
     98      37.5106      0.00000
     99      37.8693      0.00000
    100      38.1936      0.00000
    101      38.6450      0.00000
    102      39.0223      0.00000
    103      39.4286      0.00000
    104      39.7381      0.00000
    105      39.9270      0.00000
    106      40.7644      0.00000
    107      41.2177      0.00000
    108      41.8902      0.00000
    109      42.5102      0.00000
    110      43.2784      0.00000
    111      43.4931      0.00000
    112      43.9319      0.00000
    113      44.2471      0.00000
    114      44.6218      0.00000
    115      44.9465      0.00000
    116      45.5195      0.00000
    117      46.4560      0.00000
    118      46.6706      0.00000
    119      47.2580      0.00000
    120      47.8481      0.00000
    121      48.4561      0.00000
    122      49.1745      0.00000
    123      49.5557      0.00000
    124      49.9099      0.00000
    125      50.5948      0.00000
    126      51.0658      0.00000
    127      52.2451      0.00000
    128      52.7729      0.00000
    129      53.7106      0.00000
    130      54.5149      0.00000
    131      55.8404      0.00000
    132      57.0293      0.00000

 k-point     5 :       0.3333   -0.0000    0.0000
  band No.  band energies     occupation 
      1     -22.3935      2.00000
      2     -20.0996      2.00000
      3     -19.3694      2.00000
      4     -16.9119      2.00000
      5     -15.5622      2.00000
      6     -13.7490      2.00000
      7     -12.8060      2.00000
      8     -12.2206      2.00000
      9     -10.8872      2.00000
     10      -9.6660      2.00000
     11      -9.5174      2.00000
     12      -8.9280      2.00000
     13      -7.9555      2.00000
     14      -7.6045      2.00000
     15      -6.5580      2.00000
     16      -4.4289      0.00000
     17      -1.4916      0.00000
     18      -0.2467      0.00000
     19       1.3516      0.00000
     20       2.7696      0.00000
     21       3.1171      0.00000
     22       4.0790      0.00000
     23       4.7597      0.00000
     24       4.9855      0.00000
     25       5.2467      0.00000
     26       5.4078      0.00000
     27       5.8543      0.00000
     28       6.8675      0.00000
     29       7.1064      0.00000
     30       7.6690      0.00000
     31       7.6746      0.00000
     32       8.0238      0.00000
     33       8.6614      0.00000
     34       9.1572      0.00000
     35       9.4063      0.00000
     36      10.7169      0.00000
     37      13.3649      0.00000
     38      13.8072      0.00000
     39      14.1010      0.00000
     40      14.2039      0.00000
     41      14.7337      0.00000
     42      15.4689      0.00000
     43      16.2967      0.00000
     44      16.8311      0.00000
     45      17.0075      0.00000
     46      17.7810      0.00000
     47      18.1203      0.00000
     48      18.4735      0.00000
     49      18.8835      0.00000
     50      19.0951      0.00000
     51      19.4904      0.00000
     52      19.6668      0.00000
     53      20.0057      0.00000
     54      20.3705      0.00000
     55      20.7280      0.00000
     56      21.3239      0.00000
     57      21.4969      0.00000
     58      21.8068      0.00000
     59      22.1404      0.00000
     60      22.6875      0.00000
     61      22.7965      0.00000
     62      23.0976      0.00000
     63      23.6533      0.00000
     64      23.9480      0.00000
     65      24.4729      0.00000
     66      24.9418      0.00000
     67      24.9837      0.00000
     68      25.6416      0.00000
     69      26.2913      0.00000
     70      26.4005      0.00000
     71      26.9989      0.00000
     72      27.3862      0.00000
     73      27.6452      0.00000
     74      28.1211      0.00000
     75      28.3273      0.00000
     76      28.7599      0.00000
     77      29.1891      0.00000
     78      29.5169      0.00000
     79      29.7567      0.00000
     80      30.6356      0.00000
     81      30.8488      0.00000
     82      31.1556      0.00000
     83      31.8008      0.00000
     84      32.0742      0.00000
     85      32.2769      0.00000
     86      32.7405      0.00000
     87      33.0090      0.00000
     88      33.3310      0.00000
     89      33.8516      0.00000
     90      34.1454      0.00000
     91      34.4664      0.00000
     92      35.0630      0.00000
     93      35.4760      0.00000
     94      35.6614      0.00000
     95      36.2225      0.00000
     96      36.6743      0.00000
     97      37.0213      0.00000
     98      37.3905      0.00000
     99      38.3041      0.00000
    100      38.4387      0.00000
    101      38.8854      0.00000
    102      39.1126      0.00000
    103      39.5652      0.00000
    104      39.7848      0.00000
    105      40.8100      0.00000
    106      41.3107      0.00000
    107      41.6595      0.00000
    108      42.2156      0.00000
    109      42.4709      0.00000
    110      43.0161      0.00000
    111      43.3690      0.00000
    112      43.6675      0.00000
    113      44.2002      0.00000
    114      44.8365      0.00000
    115      45.2434      0.00000
    116      45.7903      0.00000
    117      46.2701      0.00000
    118      46.8648      0.00000
    119      47.2099      0.00000
    120      47.7479      0.00000
    121      48.4181      0.00000
    122      48.8645      0.00000
    123      49.4362      0.00000
    124      50.3087      0.00000
    125      50.6694      0.00000
    126      51.0182      0.00000
    127      51.8089      0.00000
    128      52.4719      0.00000
    129      53.5949      0.00000
    130      54.8430      0.00000
    131      55.9274      0.00000
    132      57.3252      0.00000

 k-point     6 :       0.4167    0.0000    0.0000
  band No.  band energies     occupation 
      1     -22.2811      2.00000
      2     -20.3424      2.00000
      3     -19.4348      2.00000
      4     -16.9788      2.00000
      5     -15.2108      2.00000
      6     -13.1343      2.00000
      7     -13.1315      2.00000
      8     -11.9151      2.00000
      9     -11.0819      2.00000
     10      -9.6704      2.00000
     11      -9.4405      2.00000
     12      -9.4184      2.00000
     13      -8.1750      2.00000
     14      -7.9898      2.00000
     15      -6.5931      2.00000
     16      -4.5482      0.00000
     17      -1.3662      0.00000
     18      -0.0482      0.00000
     19       2.2826      0.00000
     20       3.0452      0.00000
     21       3.3218      0.00000
     22       4.0545      0.00000
     23       4.1660      0.00000
     24       4.6978      0.00000
     25       5.7536      0.00000
     26       5.8303      0.00000
     27       6.5772      0.00000
     28       7.0129      0.00000
     29       7.3281      0.00000
     30       7.5125      0.00000
     31       7.7933      0.00000
     32       8.3917      0.00000
     33       8.5588      0.00000
     34       9.1062      0.00000
     35      10.6560      0.00000
     36      10.7254      0.00000
     37      13.3825      0.00000
     38      13.9372      0.00000
     39      14.3702      0.00000
     40      14.4818      0.00000
     41      15.0389      0.00000
     42      15.7369      0.00000
     43      16.2834      0.00000
     44      16.6765      0.00000
     45      17.0928      0.00000
     46      17.9011      0.00000
     47      18.2584      0.00000
     48      18.3932      0.00000
     49      18.8583      0.00000
     50      19.0067      0.00000
     51      19.1796      0.00000
     52      19.4859      0.00000
     53      19.7391      0.00000
     54      20.3082      0.00000
     55      20.5698      0.00000
     56      21.0474      0.00000
     57      21.3010      0.00000
     58      21.7542      0.00000
     59      22.1325      0.00000
     60      22.3495      0.00000
     61      22.9113      0.00000
     62      23.0948      0.00000
     63      23.2920      0.00000
     64      23.5921      0.00000
     65      23.9903      0.00000
     66      24.4878      0.00000
     67      24.9283      0.00000
     68      25.2987      0.00000
     69      25.6123      0.00000
     70      25.9538      0.00000
     71      26.0745      0.00000
     72      26.9259      0.00000
     73      27.2024      0.00000
     74      27.7228      0.00000
     75      28.4150      0.00000
     76      28.8832      0.00000
     77      29.2147      0.00000
     78      29.6694      0.00000
     79      30.0907      0.00000
     80      30.2392      0.00000
     81      30.7673      0.00000
     82      31.1139      0.00000
     83      31.6324      0.00000
     84      31.9046      0.00000
     85      32.1804      0.00000
     86      32.6499      0.00000
     87      33.1795      0.00000
     88      33.3296      0.00000
     89      33.7558      0.00000
     90      34.2170      0.00000
     91      34.3485      0.00000
     92      34.7957      0.00000
     93      35.2592      0.00000
     94      35.5505      0.00000
     95      36.1132      0.00000
     96      36.7872      0.00000
     97      37.2498      0.00000
     98      37.7422      0.00000
     99      38.3079      0.00000
    100      38.7399      0.00000
    101      39.0121      0.00000
    102      39.2228      0.00000
    103      39.8689      0.00000
    104      40.2500      0.00000
    105      40.7352      0.00000
    106      41.0511      0.00000
    107      41.3391      0.00000
    108      42.3052      0.00000
    109      42.7294      0.00000
    110      43.4371      0.00000
    111      43.8281      0.00000
    112      44.0856      0.00000
    113      44.7468      0.00000
    114      45.2327      0.00000
    115      45.6622      0.00000
    116      46.0536      0.00000
    117      46.4400      0.00000
    118      46.8197      0.00000
    119      47.5147      0.00000
    120      48.0659      0.00000
    121      48.3825      0.00000
    122      48.8612      0.00000
    123      49.5355      0.00000
    124      50.5196      0.00000
    125      51.1360      0.00000
    126      51.5831      0.00000
    127      52.1842      0.00000
    128      53.2614      0.00000
    129      53.7090      0.00000
    130      54.1025      0.00000
    131      55.2316      0.00000
    132      56.3706      0.00000

 k-point     7 :       0.5000   -0.0000    0.0000
  band No.  band energies     occupation 
      1     -22.2343      2.00000
      2     -20.4337      2.00000
      3     -19.4561      2.00000
      4     -17.0026      2.00000
      5     -15.0529      2.00000
      6     -13.2821      2.00000
      7     -12.6868      2.00000
      8     -12.2083      2.00000
      9     -10.6265      2.00000
     10     -10.2829      2.00000
     11      -9.4000      2.00000
     12      -9.2944      2.00000
     13      -8.2667      2.00000
     14      -8.1606      2.00000
     15      -6.6074      2.00000
     16      -4.5866      0.00000
     17      -1.3238      0.00000
     18       0.0271      0.00000
     19       3.0097      0.00000
     20       3.1222      0.00000
     21       3.4530      0.00000
     22       3.5898      0.00000
     23       3.9332      0.00000
     24       4.4268      0.00000
     25       6.1934      0.00000
     26       6.3780      0.00000
     27       6.5779      0.00000
     28       7.2776      0.00000
     29       7.4897      0.00000
     30       7.6994      0.00000
     31       7.7342      0.00000
     32       8.2609      0.00000
     33       8.7714      0.00000
     34      10.3669      0.00000
     35      10.9848      0.00000
     36      11.1852      0.00000
     37      13.8512      0.00000
     38      14.2928      0.00000
     39      15.0083      0.00000
     40      15.5461      0.00000
     41      15.9118      0.00000
     42      16.3174      0.00000
     43      16.9460      0.00000
     44      17.4814      0.00000
     45      17.6482      0.00000
     46      17.9957      0.00000
     47      18.4839      0.00000
     48      18.6697      0.00000
     49      19.1449      0.00000
     50      19.2894      0.00000
     51      19.7648      0.00000
     52      19.9047      0.00000
     53      20.1774      0.00000
     54      20.4003      0.00000
     55      20.9088      0.00000
     56      21.2487      0.00000
     57      21.3932      0.00000
     58      21.6622      0.00000
     59      22.1203      0.00000
     60      22.4916      0.00000
     61      22.9451      0.00000
     62      23.0068      0.00000
     63      23.2759      0.00000
     64      23.7655      0.00000
     65      24.0272      0.00000
     66      24.5880      0.00000
     67      24.8459      0.00000
     68      25.5359      0.00000
     69      25.7925      0.00000
     70      26.2011      0.00000
     71      26.3704      0.00000
     72      27.0342      0.00000
     73      27.5222      0.00000
     74      27.9440      0.00000
     75      28.3894      0.00000
     76      28.9329      0.00000
     77      29.0803      0.00000
     78      29.3234      0.00000
     79      30.0970      0.00000
     80      30.4932      0.00000
     81      30.9056      0.00000
     82      31.2899      0.00000
     83      31.6435      0.00000
     84      32.0335      0.00000
     85      32.4483      0.00000
     86      32.8192      0.00000
     87      33.2581      0.00000
     88      33.5034      0.00000
     89      33.8039      0.00000
     90      34.1975      0.00000
     91      34.5737      0.00000
     92      34.9654      0.00000
     93      35.4017      0.00000
     94      35.5725      0.00000
     95      35.9479      0.00000
     96      36.5975      0.00000
     97      37.1151      0.00000
     98      37.4378      0.00000
     99      37.8166      0.00000
    100      38.3397      0.00000
    101      38.6873      0.00000
    102      39.7224      0.00000
    103      39.9315      0.00000
    104      40.2317      0.00000
    105      40.8196      0.00000
    106      41.6941      0.00000
    107      41.8281      0.00000
    108      42.2600      0.00000
    109      42.6503      0.00000
    110      43.2365      0.00000
    111      43.5072      0.00000
    112      44.3089      0.00000
    113      44.7726      0.00000
    114      45.2135      0.00000
    115      45.6154      0.00000
    116      45.9876      0.00000
    117      46.5309      0.00000
    118      47.1685      0.00000
    119      47.5632      0.00000
    120      48.4242      0.00000
    121      49.1906      0.00000
    122      49.5275      0.00000
    123      50.0521      0.00000
    124      50.5991      0.00000
    125      51.4367      0.00000
    126      52.1328      0.00000
    127      53.0842      0.00000
    128      53.3459      0.00000
    129      53.9179      0.00000
    130      55.0744      0.00000
    131      55.5928      0.00000
    132      56.9651      0.00000

 k-point     8 :       0.0833    0.0833    0.0000
  band No.  band energies     occupation 
      1     -22.6513      2.00000
      2     -19.3351      2.00000
      3     -19.1527      2.00000
      4     -16.6503      2.00000
      5     -16.4104      2.00000
      6     -14.9315      2.00000
      7     -13.4541      2.00000
      8     -12.1725      2.00000
      9     -10.1173      2.00000
     10      -9.8015      2.00000
     11      -9.5633      2.00000
     12      -7.5831      2.00000
     13      -7.4080      2.00000
     14      -6.6708      2.00000
     15      -6.4521      2.00000
     16      -3.8018      0.00000
     17      -1.9132      0.00000
     18      -1.1447      0.00000
     19      -0.3034      0.00000
     20       2.1551      0.00000
     21       2.7834      0.00000
     22       2.9813      0.00000
     23       3.9667      0.00000
     24       4.3237      0.00000
     25       4.3328      0.00000
     26       4.7661      0.00000
     27       6.3942      0.00000
     28       7.5784      0.00000
     29       7.7962      0.00000
     30       8.9465      0.00000
     31       9.0698      0.00000
     32       9.4924      0.00000
     33       9.5507      0.00000
     34      10.2492      0.00000
     35      10.3169      0.00000
     36      11.0463      0.00000
     37      13.0856      0.00000
     38      13.2687      0.00000
     39      13.6870      0.00000
     40      14.2280      0.00000
     41      14.4781      0.00000
     42      14.9365      0.00000
     43      14.9794      0.00000
     44      15.1941      0.00000
     45      15.7632      0.00000
     46      16.3875      0.00000
     47      17.1313      0.00000
     48      17.3772      0.00000
     49      17.7125      0.00000
     50      18.0360      0.00000
     51      18.6415      0.00000
     52      18.9075      0.00000
     53      19.2436      0.00000
     54      21.1943      0.00000
     55      21.7009      0.00000
     56      21.9629      0.00000
     57      22.4527      0.00000
     58      22.6226      0.00000
     59      22.7878      0.00000
     60      23.0442      0.00000
     61      23.5439      0.00000
     62      23.7806      0.00000
     63      24.1593      0.00000
     64      24.5059      0.00000
     65      24.8343      0.00000
     66      25.3136      0.00000
     67      25.4526      0.00000
     68      26.1052      0.00000
     69      26.5628      0.00000
     70      26.7462      0.00000
     71      27.6488      0.00000
     72      27.8371      0.00000
     73      28.0124      0.00000
     74      28.5334      0.00000
     75      28.7885      0.00000
     76      29.1859      0.00000
     77      29.4700      0.00000
     78      29.8326      0.00000
     79      30.2487      0.00000
     80      30.7105      0.00000
     81      30.9009      0.00000
     82      31.2736      0.00000
     83      31.4524      0.00000
     84      31.7642      0.00000
     85      32.2232      0.00000
     86      32.6621      0.00000
     87      33.0222      0.00000
     88      33.2502      0.00000
     89      33.9347      0.00000
     90      34.1375      0.00000
     91      34.6218      0.00000
     92      34.7482      0.00000
     93      35.1407      0.00000
     94      35.5194      0.00000
     95      36.0310      0.00000
     96      36.3611      0.00000
     97      36.7117      0.00000
     98      37.1284      0.00000
[...]
    5.761599    0.455660    0.455660    1.999938    0.000000   -0.000000   -0.000000
    6.049679    0.711815    0.711815    2.061508    0.000000   -0.000000   -0.000000
    6.337759    0.719166    0.719166    2.093921    0.000000   -0.000000   -0.000000
    6.625839    1.149139    1.149139    2.127329    0.000000   -0.000000   -0.000000
    6.913918    1.056318    1.056318    2.170511    0.000000   -0.000000   -0.000000
    7.201998    1.254736    1.254736    2.239606    0.000000   -0.000000   -0.000000
    7.490078    1.281490    1.281490    2.322811    0.000000   -0.000000   -0.000000
    7.778158    1.479154    1.479154    2.399588    0.000000   -0.000000   -0.000000
    8.066238    1.599809    1.599809    2.593930    0.000000   -0.000000   -0.000000
    8.354318    1.593475    1.593475    2.657505    0.000000   -0.000000   -0.000000
    8.642398    1.813077    1.813077    3.037481    0.000000   -0.000000   -0.000000
    8.930478    1.896469    1.896469    3.330771    0.000000   -0.000000   -0.000000
    9.218558    2.079593    2.079593    4.039189    0.000000   -0.000000   -0.000000
    9.506638    2.239862    2.239862    2.044175    0.000000   -0.000000   -0.000000
    9.794718    2.433250    2.433249    1.384542    0.000000   -0.000000   -0.000000
   10.082798    2.809015    2.809014    1.027687    0.000000   -0.000000   -0.000000
   10.370878    3.237846    3.237845    1.386092    0.000000   -0.000000   -0.000000
   10.658958    3.523241    3.523240    1.717147    0.000000   -0.000000   -0.000000
   10.947038    3.244884    3.244883    2.375736    0.000000   -0.000000   -0.000000
   11.235118    3.023757    3.023757    0.716111   -0.000000   -0.000000   -0.000000
   11.523197    3.276350    3.276349    0.939715    0.000000   -0.000000   -0.000000
   11.811277    1.013819    1.013819    1.388108   -0.000000   -0.000000   -0.000000
   12.099357    0.562372    0.562372    1.283019    0.000000   -0.000000   -0.000000
   12.387437    0.174431    0.174431    1.187261    0.000000   -0.000000   -0.000000
   12.675517    0.186261    0.186261    1.137998    0.000000   -0.000000   -0.000000
   12.963597    0.302358    0.302358    1.023817    0.000000   -0.000000   -0.000000
   13.251677    0.184162    0.184162    0.919414    0.000000   -0.000000   -0.000000
   13.539757    0.602007    0.602007    0.180796   -0.000000   -0.000000   -0.000000
   13.827837    0.329979    0.329979   -0.228740   -0.000000   -0.000000   -0.000000
   14.115917   -0.042774   -0.042774    0.052746   -0.000000   -0.000000   -0.000000
   14.403997   -0.109879   -0.109879    0.070093   -0.000000   -0.000000   -0.000000
   14.692077    0.268325    0.268325   -0.042972   -0.000000   -0.000000   -0.000000
   14.980157    0.077678    0.077678    0.166130   -0.000000   -0.000000   -0.000000
   15.268237    0.243400    0.243400    0.244849   -0.000000   -0.000000   -0.000000
   15.556317    0.102059    0.102059    0.273733   -0.000000   -0.000000   -0.000000
   15.844396    0.189451    0.189451    0.402207   -0.000000   -0.000000   -0.000000
   16.132476    0.003087    0.003087    0.425151    0.000000   -0.000000   -0.000000
   16.420556   -0.017265   -0.017264    0.487407    0.000000   -0.000000   -0.000000
   16.708636    0.217546    0.217546    0.617244   -0.000000   -0.000000   -0.000000
   16.996716    0.260788    0.260789    0.749597    0.000000   -0.000000   -0.000000
   17.284796    0.203976    0.203977    0.714995    0.000000   -0.000000   -0.000000
   17.572876    0.226154    0.226154    0.777924    0.000000   -0.000000   -0.000000
   17.860956    0.258598    0.258598    0.917301    0.000000   -0.000000   -0.000000
   18.149036    0.326831    0.326831    0.909410    0.000000   -0.000000   -0.000000
   18.437116    0.263035    0.263035    0.899480    0.000000   -0.000000   -0.000000
   18.725196    0.264632    0.264632    0.579316    0.000000   -0.000000   -0.000000
   19.013276    0.354670    0.354670    0.679855    0.000000   -0.000000   -0.000000
   19.301356    0.412879    0.412879    0.769682    0.000000   -0.000000   -0.000000
   19.589436    0.429073    0.429073    0.805838    0.000000   -0.000000   -0.000000
   19.877516    0.453407    0.453407    0.854787    0.000000   -0.000000   -0.000000
   20.165596    0.520118    0.520118    0.915963    0.000000   -0.000000   -0.000000
   20.453675    0.603520    0.603521    0.889988    0.000000   -0.000000   -0.000000
   20.741755    0.436958    0.436958    0.925783    0.000000   -0.000000   -0.000000
   21.029835    0.425719    0.425719    0.909793    0.000000   -0.000000   -0.000000
   21.317915    0.529163    0.529163    0.963601    0.000000   -0.000000   -0.000000
   21.605995    0.489593    0.489593    1.028750    0.000000   -0.000000   -0.000000
   21.894075    0.469892    0.469892    1.083089    0.000000   -0.000000   -0.000000
   22.182155    0.517025    0.517025    1.130058    0.000000   -0.000000   -0.000000
   22.470235    0.558792    0.558792    1.176229    0.000000   -0.000000   -0.000000
   22.758315    0.564367    0.564368    1.229798    0.000000   -0.000000   -0.000000
   23.046395    0.549626    0.549626    1.065575    0.000000   -0.000000   -0.000000
   23.334475    0.530674    0.530674    0.660574    0.000000   -0.000000   -0.000000
   23.622555    0.566877    0.566877    0.708179    0.000000   -0.000000   -0.000000
   23.910635    0.588123    0.588124    0.923554    0.000000   -0.000000   -0.000000
   24.198715    0.614379    0.614379    0.821995    0.000000   -0.000000   -0.000000
   24.486795    0.683601    0.683601    0.716344    0.000000   -0.000000   -0.000000
   24.774874    0.658715    0.658715    0.672986    0.000000   -0.000000   -0.000000
   25.062954    0.638247    0.638247    0.727314    0.000000   -0.000000   -0.000000
   25.351034    0.632234    0.632234    0.706709    0.000000   -0.000000   -0.000000
   25.639114    0.638076    0.638077    0.786016    0.000000   -0.000000   -0.000000
   25.927194    0.644820    0.644820    0.731943    0.000000   -0.000000   -0.000000
   26.215274    0.654957    0.654957    0.810446    0.000000   -0.000000   -0.000000
   26.503354    0.649904    0.649904    0.724550    0.000000   -0.000000   -0.000000
   26.791434    0.671758    0.671758    0.755059    0.000000   -0.000000   -0.000000
   27.079514    0.682134    0.682134    0.776250    0.000000   -0.000000   -0.000000
   27.367594    0.701383    0.701383    0.717600    0.000000   -0.000000   -0.000000
   27.655674    0.717795    0.717796    0.620553    0.000000   -0.000000   -0.000000
   27.943754    0.725710    0.725710    0.687881    0.000000   -0.000000   -0.000000
   28.231834    0.735899    0.735899    0.677389    0.000000   -0.000000   -0.000000
   28.519914    0.734517    0.734517    0.738868    0.000000   -0.000000   -0.000000
   28.807994    0.744165    0.744165    0.730260    0.000000   -0.000000   -0.000000
   29.096074    0.760087    0.760087    0.743017    0.000000   -0.000000   -0.000000
   29.384153    0.744830    0.744830    0.792937    0.000000   -0.000000   -0.000000
   29.672233    0.765114    0.765114    0.792522    0.000000   -0.000000   -0.000000
   29.960313    0.755232    0.755232    0.810833    0.000000   -0.000000   -0.000000
   30.248393    0.754771    0.754771    0.803431    0.000000   -0.000000   -0.000000
   30.536473    0.752467    0.752467    0.781851    0.000000   -0.000000   -0.000000
   30.824553    0.760186    0.760186    0.824479    0.000000   -0.000000   -0.000000
   31.112633    0.753562    0.753562    0.812908    0.000000   -0.000000   -0.000000
   31.400713    0.769317    0.769317    0.772420    0.000000   -0.000000   -0.000000
   31.688793    0.790511    0.790511    0.801860    0.000000   -0.000000   -0.000000
   31.976873    0.798697    0.798697    0.718127    0.000000   -0.000000   -0.000000
   32.264953    0.782249    0.782249    0.751403    0.000000   -0.000000   -0.000000
   32.553033    0.778444    0.778444    0.749747    0.000000   -0.000000   -0.000000
   32.841113    0.776126    0.776126    0.793779    0.000000   -0.000000   -0.000000
   33.129193    0.767991    0.767991    0.786087    0.000000   -0.000000   -0.000000
   33.417273    0.786551    0.786551    0.777468    0.000000   -0.000000   -0.000000
   33.705353    0.790921    0.790921    0.803315    0.000000   -0.000000   -0.000000
   33.993432    0.800765    0.800765    0.805033    0.000000   -0.000000   -0.000000
   34.281512    0.816028    0.816028    0.812994    0.000000   -0.000000   -0.000000
   34.569592    0.810735    0.810735    0.793859    0.000000   -0.000000   -0.000000
   34.857672    0.802660    0.802661    0.813017    0.000000   -0.000000   -0.000000
   35.145752    0.802866    0.802866    0.832132    0.000000   -0.000000   -0.000000
   35.433832    0.806317    0.806317    0.857540    0.000000   -0.000000   -0.000000
   35.721912    0.823855    0.823855    0.866469    0.000000   -0.000000   -0.000000
   36.009992    0.818404    0.818404    0.866846    0.000000   -0.000000   -0.000000
   36.298072    0.824959    0.824959    0.888106    0.000000   -0.000000   -0.000000
   36.586152    0.837827    0.837827    0.901437    0.000000   -0.000000   -0.000000
   36.874232    0.819790    0.819790    0.912230    0.000000   -0.000000   -0.000000
   37.162312    0.829250    0.829251    0.839849    0.000000   -0.000000   -0.000000
   37.450392    0.829028    0.829028    0.845362    0.000000   -0.000000   -0.000000
   37.738472    0.833060    0.833060    0.827408    0.000000   -0.000000   -0.000000
   38.026552    0.836306    0.836306    0.829314    0.000000   -0.000000   -0.000000
   38.314631    0.842843    0.842843    0.834656    0.000000   -0.000000   -0.000000
   38.602711    0.846512    0.846512    0.833826    0.000000    0.000000   -0.000000
   38.890791    0.852439    0.852439    0.834216    0.000000    0.000000   -0.000000
   39.178871    0.853043    0.853043    0.836228    0.000000    0.000000    0.000000
   39.466951    0.859334    0.859334    0.832067    0.000000    0.000000    0.000000
   39.755031    0.860680    0.860680    0.817693    0.000000   -0.000000    0.000000
   40.043111    0.860845    0.860845    0.824505    0.000000    0.000000    0.000000
   40.331191    0.864561    0.864561    0.835374    0.000000   -0.000000   -0.000000
   40.619271    0.865198    0.865198    0.829740    0.000000   -0.000000   -0.000000
   40.907351    0.862189    0.862189    0.843211    0.000000   -0.000000   -0.000000
   41.195431    0.863504    0.863505    0.838836    0.000000   -0.000000   -0.000000
   41.483511    0.864004    0.864004    0.838252    0.000000   -0.000000   -0.000000
   41.771591    0.867662    0.867662    0.841591    0.000000    0.000000   -0.000000
   42.059671    0.869592    0.869592    0.852209    0.000000    0.000000   -0.000000
   42.347751    0.870530    0.870530    0.851221    0.000000    0.000000   -0.000000
   42.635831    0.872448    0.872448    0.852467    0.000000    0.000000   -0.000000
   42.923910    0.873170    0.873170    0.846430    0.000000    0.000000   -0.000000
   43.211990    0.876378    0.876378    0.853009    0.000000   -0.000000    0.000000
   43.500070    0.877379    0.877379    0.848395    0.000000    0.000000    0.000000
   43.788150    0.880086    0.880086    0.841459    0.000000    0.000000   -0.000000
   44.076230    0.885957    0.885957    0.848767    0.000000   -0.000000   -0.000000
   44.364310    0.886436    0.886436    0.860900    0.000000   -0.000000   -0.000000
   44.652390    0.887638    0.887638    0.854298    0.000000    0.000000    0.000000
   44.940470    0.885689    0.885689    0.865980    0.000000    0.000000    0.000000
   45.228550    0.889094    0.889094    0.858329    0.000000    0.000000    0.000000
   45.516630    0.894953    0.894953    0.864562    0.000000   -0.000000    0.000000
   45.804710    0.894540    0.894540    0.869054    0.000000    0.000000   -0.000000
   46.092790    0.894895    0.894895    0.871940    0.000000   -0.000000   -0.000000
   46.380870    0.896015    0.896015    0.877382    0.000000   -0.000000   -0.000000
   46.668950    0.894471    0.894471    0.873973    0.000000   -0.000000   -0.000000
   46.957030    0.897423    0.897423    0.860070    0.000000    0.000000    0.000000
   47.245109    0.899594    0.899594    0.870135    0.000000    0.000000    0.000000
   47.533189    0.897082    0.897082    0.876616    0.000000   -0.000000    0.000000
   47.821269    0.900609    0.900609    0.878129    0.000000    0.000000    0.000000
   48.109349    0.903557    0.903557    0.881651    0.000000    0.000000    0.000000
   48.397429    0.904442    0.904442    0.882840    0.000000    0.000000    0.000000
   48.685509    0.906132    0.906132    0.886350    0.000000    0.000000    0.000000
   48.973589    0.906912    0.906912    0.889154    0.000000    0.000000   -0.000000
   49.261669    0.907182    0.907182    0.891997    0.000000   -0.000000   -0.000000
   49.549749    0.906809    0.906809    0.895022    0.000000    0.000000   -0.000000
   49.837829    0.911005    0.911005    0.898049    0.000000    0.000000    0.000000
   50.125909    0.912416    0.912416    0.900389    0.000000    0.000000   -0.000000
   50.413989    0.912728    0.912728    0.902440    0.000000   -0.000000   -0.000000
   50.702069    0.912355    0.912355    0.904393    0.000000   -0.000000   -0.000000
   50.990149    0.913669    0.913669    0.906591    0.000000   -0.000000   -0.000000
   51.278229    0.916485    0.916485    0.908573    0.000000   -0.000000    0.000000
   51.566309    0.915972    0.915972    0.910631    0.000000    0.000000    0.000000
   51.854388    0.918177    0.918177    0.912147    0.000000    0.000000    0.000000
   52.142468    0.918477    0.918477    0.913137    0.000000    0.000000    0.000000
   52.430548    0.922094    0.922094    0.914788    0.000000    0.000000    0.000000
   52.718628    0.920251    0.920251    0.915249    0.000000    0.000000    0.000000
   53.006708    0.921933    0.921933    0.916867    0.000000    0.000000    0.000000
   53.294788    0.920871    0.920871    0.918364    0.000000    0.000000    0.000000
   53.582868    0.922507    0.922507    0.918951    0.000000   -0.000000    0.000000
   53.870948    0.920642    0.920642    0.920356    0.000000   -0.000000   -0.000000
   54.159028    0.920280    0.920280    0.921732    0.000000   -0.000000   -0.000000
   54.447108    0.920963    0.920963    0.923441    0.000000   -0.000000    0.000000
   54.735188    0.924356    0.924356    0.923702    0.000000   -0.000000    0.000000
   55.023268    0.923688    0.923688    0.924500    0.000000   -0.000000    0.000000
   55.311348    0.925806    0.925806    0.925636    0.000000    0.000000   -0.000000
   55.599428    0.926639    0.926639    0.926712    0.000000   -0.000000   -0.000000
   55.887508    0.927844    0.927844    0.927639    0.000000    0.000000    0.000000
   56.175588    0.928722    0.928722    0.928527    0.000000    0.000000    0.000000
   56.463667    0.929566    0.929566    0.929848    0.000000    0.000000    0.000000
   56.751747    0.930910    0.930910    0.930978    0.000000   -0.000000    0.000000
   57.039827    0.932113    0.932113    0.932024    0.000000   -0.000000    0.000000
   57.327907    0.933206    0.933206    0.933014    0.000000   -0.000000    0.000000
   57.615987    0.934207    0.934207    0.933964    0.000000   -0.000000    0.000000
   57.904067    0.935147    0.935147    0.934880    0.000000   -0.000000    0.000000
   58.192147    0.936041    0.936041    0.935766    0.000000   -0.000000    0.000000
   58.480227    0.936897    0.936897    0.936626    0.000000   -0.000000    0.000000
   58.768307    0.937721    0.937722    0.937462    0.000000   -0.000000    0.000000
   59.056387    0.938518    0.938518    0.938276    0.000000   -0.000000    0.000000
   59.344467    0.939289    0.939289    0.939069    0.000000   -0.000000    0.000000
   59.632547    0.940037    0.940037    0.939843    0.000000   -0.000000    0.000000
   59.920627    0.940765    0.940765    0.940598    0.000000   -0.000000    0.000000
   60.208707    0.941474    0.941474    0.941335    0.000000   -0.000000    0.000000
   60.496787    0.942165    0.942165    0.942055    0.000000   -0.000000    0.000000
   60.784866    0.942839    0.942839    0.942760    0.000000   -0.000000    0.000000
   61.072946    0.943498    0.943498    0.943449    0.000000   -0.000000    0.000000
   61.361026    0.944141    0.944141    0.944123    0.000000   -0.000000    0.000000
   61.649106    0.944771    0.944771    0.944783    0.000000   -0.000000    0.000000
   61.937186    0.945387    0.945387    0.945429    0.000000   -0.000000    0.000000
   62.225266    0.945990    0.945990    0.946062    0.000000   -0.000000    0.000000
   62.513346    0.946581    0.946581    0.946683    0.000000   -0.000000    0.000000
   62.801426    0.947160    0.947160    0.947291    0.000000   -0.000000    0.000000
   63.089506    0.947728    0.947728    0.947887    0.000000   -0.000000    0.000000
   63.377586    0.948284    0.948284    0.948472    0.000000   -0.000000    0.000000
   63.665666    0.948831    0.948831    0.949045    0.000000   -0.000000    0.000000
   63.953746    0.949367    0.949367    0.949608    0.000000   -0.000000    0.000000
   64.241826    0.949894    0.949894    0.950160    0.000000   -0.000000    0.000000
   64.529906    0.950411    0.950411    0.950702    0.000000   -0.000000    0.000000
   64.817986    0.950918    0.950918    0.951234    0.000000   -0.000000    0.000000
   65.106066    0.951417    0.951417    0.951756    0.000000   -0.000000    0.000000
   65.394145    0.951908    0.951908    0.952269    0.000000   -0.000000    0.000000
   65.682225    0.952390    0.952390    0.952773    0.000000   -0.000000    0.000000
   65.970305    0.952863    0.952863    0.953268    0.000000    0.000000    0.000000
   66.258385    0.953329    0.953329    0.953755    0.000000    0.000000    0.000000
   66.546465    0.953788    0.953788    0.954233    0.000000    0.000000    0.000000
   66.834545    0.954238    0.954238    0.954703    0.000000    0.000000    0.000000
   67.122625    0.954682    0.954682    0.955165    0.000000    0.000000    0.000000
   67.410705    0.955118    0.955118    0.955620    0.000000    0.000000    0.000000
   67.698785    0.955548    0.955548    0.956067    0.000000    0.000000    0.000000
   67.986865    0.955970    0.955970    0.956506    0.000000    0.000000    0.000000
   68.274945    0.956386    0.956386    0.956938    0.000000    0.000000    0.000000
   68.563025    0.956796    0.956796    0.957364    0.000000    0.000000    0.000000
   68.851105    0.957200    0.957200    0.957782    0.000000    0.000000    0.000000
 
 The outermost node in the dielectric function lies at epsilon=  16.5


--------------------------------------------------------------------------------------------------------


    OPTICS:  cpu time    0.8343: real time    0.8615
    4ORBIT:  cpu time    0.0000: real time    0.0000

 total amount of memory used by VASP MPI-rank0    63997. kBytes
=======================================================================

   base      :      30000. kBytes
   nonl-proj :      11089. kBytes
   fftplans  :       2090. kBytes
   grid      :       6068. kBytes
   one-center:         24. kBytes
   wavefun   :      14726. kBytes
 
  
  
 General timing and accounting informations for this job:
 ========================================================
  
                  Total CPU time used (sec):       76.414
                            User time (sec):       75.280
                          System time (sec):        1.133
                         Elapsed time (sec):       78.090
  
                   Maximum memory used (kb):      173280.
                   Average memory used (kb):           0.
  
                          Minor page faults:        59495
                          Major page faults:            0
                 Voluntary context switches:         6046
