 running on   12 total cores
 distrk:  each k-point on   12 cores,    1 groups
 distr:  one band on    1 cores,   12 groups
 using from now: INCAR     
 vasp.5.4.4.18Apr17-6-g9f103f2a35 (build Mar 30 2023 15:39:25) complex          
  
 POSCAR found type information on POSCAR  B  C 
 POSCAR found :  2 types and       8 ions
 scaLAPACK will be used

 ----------------------------------------------------------------------------- 
|                                                                             |
|           W    W    AA    RRRRR   N    N  II  N    N   GGGG   !!!           |
|           W    W   A  A   R    R  NN   N  II  NN   N  G    G  !!!           |
|           W    W  A    A  R    R  N N  N  II  N N  N  G       !!!           |
|           W WW W  AAAAAA  RRRRR   N  N N  II  N  N N  G  GGG   !            |
|           WW  WW  A    A  R   R   N   NN  II  N   NN  G    G                |
|           W    W  A    A  R    R  N    N  II  N    N   GGGG   !!!           |
|                                                                             |
|      For optimal performance we recommend to set                            |
|        NCORE= 4 - approx SQRT( number of cores)                             |
|      NCORE specifies how many cores store one orbital (NPAR=cpu/NCORE).     |
|      This setting can  greatly improve the performance of VASP for DFT.     |
|      The default,   NCORE=1            might be grossly inefficient         |
|      on modern multi-core architectures or massively parallel machines.     |
|      Do your own testing !!!!                                               |
|      Unfortunately you need to use the default for GW and RPA calculations. |
|      (for HF NCORE is supported but not extensively tested yet)             |
|                                                                             |
 ----------------------------------------------------------------------------- 

 LDA part: xc-table for Pade appr. of Perdew

 ----------------------------------------------------------------------------- 
|                                                                             |
|           W    W    AA    RRRRR   N    N  II  N    N   GGGG   !!!           |
|           W    W   A  A   R    R  NN   N  II  NN   N  G    G  !!!           |
|           W    W  A    A  R    R  N N  N  II  N N  N  G       !!!           |
|           W WW W  AAAAAA  RRRRR   N  N N  II  N  N N  G  GGG   !            |
|           WW  WW  A    A  R   R   N   NN  II  N   NN  G    G                |
|           W    W  A    A  R    R  N    N  II  N    N   GGGG   !!!           |
|                                                                             |
|      The number of bands has been changed from the values supplied          |
|      in the INCAR file. This is a result of running the parallel version.   |
|      The orbitals not found in the WAVECAR file will be initialized with    |
|      random numbers, which is usually adequate. For correlated              |
|      calculations, however, you should redo the groundstate calculation.    |
|      I found NBANDS    =      128  now  NBANDS  =     132                   |
|                                                                             |
 ----------------------------------------------------------------------------- 

 found WAVECAR, reading the header
  number of bands has changed, file:    36 present:   132
  trying to continue reading WAVECAR, but it might fail
 POSCAR, INCAR and KPOINTS ok, starting setup
 FFT: planning ...
 reading WAVECAR
 random initialization beyond band           37
 the WAVECAR file was read successfully
 entering main loop
       N       E                     dE             d eps       ncg     rms          rms(c)
DAV:   1    -0.728232749978E+02   -0.72823E+02   -0.69452E+00  5040   0.411E+00    0.133E+01
DAV:   2    -0.691583467976E+02    0.36649E+01   -0.44556E+00  6204   0.386E+00    0.750E+00
DAV:   3    -0.673007427314E+02    0.18576E+01   -0.19530E+00  5976   0.227E+00    0.179E+00
DAV:   4    -0.672661339126E+02    0.34609E-01   -0.23209E-01  5808   0.627E-01    0.106E+00
DAV:   5    -0.672315763488E+02    0.34558E-01   -0.10917E-02  5916   0.161E-01    0.391E-01
DAV:   6    -0.672199533976E+02    0.11623E-01   -0.11500E-02  5832   0.182E-01    0.511E-01
DAV:   7    -0.672202900330E+02   -0.33664E-03   -0.26543E-03  5532   0.100E-01    0.135E-01
DAV:   8    -0.672266527905E+02   -0.63628E-02   -0.26428E-03  5604   0.809E-02    0.194E-01
DAV:   9    -0.672274151600E+02   -0.76237E-03   -0.34244E-04  5664   0.319E-02    0.453E-02
DAV:  10    -0.672276551370E+02   -0.23998E-03   -0.75226E-05  5952   0.129E-02    0.191E-02
DAV:  11    -0.672277200771E+02   -0.64940E-04   -0.11441E-05  5688   0.574E-03    0.524E-03
DAV:  12    -0.672277262852E+02   -0.62081E-05   -0.10912E-06  6036   0.134E-03    0.473E-03
DAV:  13    -0.672277300118E+02   -0.37265E-05   -0.18526E-07  5568   0.761E-04    0.417E-04
DAV:  14    -0.672277302020E+02   -0.19028E-06   -0.28728E-08  6048   0.218E-04    0.370E-04
DAV:  15    -0.672277302313E+02   -0.29287E-07   -0.34020E-10  5520   0.346E-05    0.479E-05
DAV:  16    -0.672277302465E+02   -0.15199E-07   -0.18302E-10  5376   0.211E-05    0.246E-05
DAV:  17    -0.672277302467E+02   -0.16462E-09    0.18975E-12  5796   0.540E-06
   1 F= -.67227730E+02 E0= -.67227730E+02  d E =-.252873E-20
 writing wavefunctions
 optical routines
 imaginary and real dielectric function
 recalculating local potential from charge density
 direction            1
 direction            2
 direction            3
