   8   8   0   0
  0.2469169E+02  0.5174038E-09  0.5174038E-09  0.8520222E-09  0.5000000E-15
  1.000000000000000E-004
  CAR 
 BC3-optical                             
     41.93124757    -21.41992849 2400     -2.40500302      1.00000000
    -21.420  0.0000E+00  0.0000E+00
    -21.394  0.0000E+00  0.0000E+00
    -21.367  0.0000E+00  0.0000E+00
    -21.341  0.0000E+00  0.0000E+00
    -21.314  0.0000E+00  0.0000E+00
    -21.288  0.0000E+00  0.0000E+00
    -21.261  0.0000E+00  0.0000E+00
    -21.235  0.0000E+00  0.0000E+00
    -21.209  0.0000E+00  0.0000E+00
    -21.182  0.0000E+00  0.0000E+00
    -21.156  0.0000E+00  0.0000E+00
    -21.129  0.0000E+00  0.0000E+00
    -21.103  0.0000E+00  0.0000E+00
    -21.077  0.0000E+00  0.0000E+00
    -21.050  0.0000E+00  0.0000E+00
    -21.024  0.0000E+00  0.0000E+00
    -20.997  0.0000E+00  0.0000E+00
    -20.971  0.0000E+00  0.0000E+00
    -20.945  0.0000E+00  0.0000E+00
    -20.918  0.0000E+00  0.0000E+00
    -20.892  0.0000E+00  0.0000E+00
    -20.865  0.0000E+00  0.0000E+00
    -20.839  0.0000E+00  0.0000E+00
    -20.813  0.0000E+00  0.0000E+00
    -20.786  0.0000E+00  0.0000E+00
    -20.760  0.0000E+00  0.0000E+00
    -20.733  0.0000E+00  0.0000E+00
    -20.707  0.0000E+00  0.0000E+00
    -20.681  0.0000E+00  0.0000E+00
    -20.654  0.0000E+00  0.0000E+00
    -20.628  0.0000E+00  0.0000E+00
    -20.601  0.0000E+00  0.0000E+00
    -20.575  0.0000E+00  0.0000E+00
    -20.548  0.0000E+00  0.0000E+00
    -20.522  0.0000E+00  0.0000E+00
    -20.496  0.0000E+00  0.0000E+00
    -20.469  0.0000E+00  0.0000E+00
    -20.443  0.0000E+00  0.0000E+00
    -20.416  0.0000E+00  0.0000E+00
    -20.390  0.0000E+00  0.0000E+00
    -20.364  0.0000E+00  0.0000E+00
    -20.337  0.0000E+00  0.0000E+00
    -20.311  0.0000E+00  0.0000E+00
    -20.284  0.0000E+00  0.0000E+00
    -20.258  0.0000E+00  0.0000E+00
    -20.232  0.0000E+00  0.0000E+00
    -20.205  0.0000E+00  0.0000E+00
    -20.179  0.0000E+00  0.0000E+00
    -20.152  0.0000E+00  0.0000E+00
    -20.126  0.0000E+00  0.0000E+00
    -20.100  0.0000E+00  0.0000E+00
    -20.073  0.0000E+00  0.0000E+00
    -20.047  0.0000E+00  0.0000E+00
    -20.020  0.0000E+00  0.0000E+00
    -19.994  0.0000E+00  0.0000E+00
    -19.968  0.0000E+00  0.0000E+00
    -19.941  0.0000E+00  0.0000E+00
    -19.915  0.0000E+00  0.0000E+00
    -19.888  0.0000E+00  0.0000E+00
    -19.862  0.0000E+00  0.0000E+00
    -19.835  0.0000E+00  0.0000E+00
    -19.809  0.0000E+00  0.0000E+00
    -19.783  0.0000E+00  0.0000E+00
    -19.756  0.0000E+00  0.0000E+00
    -19.730  0.0000E+00  0.0000E+00
    -19.703  0.0000E+00  0.0000E+00
    -19.677  0.0000E+00  0.0000E+00
    -19.651  0.0000E+00  0.0000E+00
    -19.624  0.0000E+00  0.0000E+00
    -19.598  0.0000E+00  0.0000E+00
    -19.571  0.0000E+00  0.0000E+00
    -19.545  0.0000E+00  0.0000E+00
    -19.519  0.0000E+00  0.0000E+00
    -19.492  0.0000E+00  0.0000E+00
    -19.466  0.0000E+00  0.0000E+00
    -19.439  0.0000E+00  0.0000E+00
    -19.413  0.0000E+00  0.0000E+00
    -19.387  0.0000E+00  0.0000E+00
    -19.360  0.0000E+00  0.0000E+00
    -19.334  0.0000E+00  0.0000E+00
    -19.307  0.0000E+00  0.0000E+00
    -19.281  0.0000E+00  0.0000E+00
    -19.255  0.0000E+00  0.0000E+00
    -19.228  0.0000E+00  0.0000E+00
    -19.202  0.0000E+00  0.0000E+00
    -19.175  0.0000E+00  0.0000E+00
    -19.149  0.0000E+00  0.0000E+00
    -19.122  0.0000E+00  0.0000E+00
    -19.096  0.0000E+00  0.0000E+00
    -19.070  0.0000E+00  0.0000E+00
    -19.043  0.0000E+00  0.0000E+00
    -19.017  0.0000E+00  0.0000E+00
    -18.990  0.0000E+00  0.0000E+00
    -18.964  0.0000E+00  0.0000E+00
    -18.938  0.0000E+00  0.0000E+00
    -18.911  0.0000E+00  0.0000E+00
    -18.885  0.0000E+00  0.0000E+00
    -18.858  0.0000E+00  0.0000E+00
    -18.832  0.0000E+00  0.0000E+00
    -18.806  0.0000E+00  0.0000E+00
    -18.779  0.0000E+00  0.0000E+00
    -18.753  0.0000E+00  0.0000E+00
    -18.726  0.0000E+00  0.0000E+00
    -18.700  0.0000E+00  0.0000E+00
    -18.674  0.0000E+00  0.0000E+00
    -18.647  0.0000E+00  0.0000E+00
    -18.621  0.0000E+00  0.0000E+00
    -18.594  0.5752E-14  0.1519E-15
    -18.568  0.2485E-04  0.6562E-06
    -18.542  0.2276E+00  0.6011E-02
    -18.515  0.1541E+01  0.4671E-01
    -18.489  0.1912E+01  0.9720E-01
    -18.462  0.1191E+01  0.1287E+00
    -18.436  0.3233E+01  0.2140E+00
    -18.409  0.1887E+01  0.2639E+00
    -18.383  0.2566E-02  0.2639E+00
    -18.357  0.3870E+01  0.3661E+00
    -18.330  0.2450E+01  0.4308E+00
    -18.304  0.2663E+01  0.5011E+00
    -18.277  0.4826E+00  0.5139E+00
    -18.251  0.3410E+00  0.5229E+00
    -18.225  0.4885E+01  0.6519E+00
    -18.198  0.4238E+01  0.7638E+00
    -18.172  0.3012E+00  0.7718E+00
    -18.145  0.2833E+01  0.8466E+00
    -18.119  0.1197E+00  0.8497E+00
    -18.093  0.5898E+01  0.1005E+01
    -18.066  0.6054E+01  0.1165E+01
    -18.040  0.6929E+00  0.1184E+01
    -18.013  0.2958E+01  0.1262E+01
    -17.987  0.2277E+01  0.1322E+01
    -17.961  0.1466E+02  0.1709E+01
    -17.934  0.1074E+01  0.1737E+01
    -17.908  0.4320E+01  0.1851E+01
    -17.881  0.4728E+01  0.1976E+01
    -17.855  0.8969E+00  0.2000E+01
    -17.829  0.3722E-02  0.2000E+01
    -17.802  0.6812E-10  0.2000E+01
    -17.776  0.0000E+00  0.2000E+01
    -17.749  0.0000E+00  0.2000E+01
    -17.723  0.0000E+00  0.2000E+01
    -17.696  0.0000E+00  0.2000E+01
    -17.670  0.0000E+00  0.2000E+01
    -17.644  0.0000E+00  0.2000E+01
    -17.617  0.0000E+00  0.2000E+01
    -17.591  0.0000E+00  0.2000E+01
    -17.564  0.0000E+00  0.2000E+01
    -17.538  0.0000E+00  0.2000E+01
    -17.512  0.0000E+00  0.2000E+01
    -17.485  0.0000E+00  0.2000E+01
    -17.459  0.0000E+00  0.2000E+01
    -17.432  0.0000E+00  0.2000E+01
    -17.406  0.0000E+00  0.2000E+01
    -17.380  0.0000E+00  0.2000E+01
    -17.353  0.0000E+00  0.2000E+01
    -17.327  0.0000E+00  0.2000E+01
    -17.300  0.0000E+00  0.2000E+01
    -17.274  0.0000E+00  0.2000E+01
    -17.248  0.0000E+00  0.2000E+01
    -17.221  0.0000E+00  0.2000E+01
    -17.195  0.0000E+00  0.2000E+01
    -17.168  0.0000E+00  0.2000E+01
    -17.142  0.0000E+00  0.2000E+01
    -17.116  0.0000E+00  0.2000E+01
    -17.089  0.0000E+00  0.2000E+01
    -17.063  0.0000E+00  0.2000E+01
    -17.036  0.0000E+00  0.2000E+01
    -17.010  0.0000E+00  0.2000E+01
    -16.983  0.0000E+00  0.2000E+01
    -16.957  0.0000E+00  0.2000E+01
    -16.931  0.0000E+00  0.2000E+01
    -16.904  0.0000E+00  0.2000E+01
    -16.878  0.0000E+00  0.2000E+01
    -16.851  0.0000E+00  0.2000E+01
    -16.825  0.0000E+00  0.2000E+01
    -16.799  0.0000E+00  0.2000E+01
    -16.772  0.0000E+00  0.2000E+01
    -16.746  0.0000E+00  0.2000E+01
    -16.719  0.0000E+00  0.2000E+01
    -16.693  0.0000E+00  0.2000E+01
    -16.667  0.0000E+00  0.2000E+01
    -16.640  0.0000E+00  0.2000E+01
    -16.614  0.0000E+00  0.2000E+01
    -16.587  0.0000E+00  0.2000E+01
    -16.561  0.0000E+00  0.2000E+01
    -16.535  0.0000E+00  0.2000E+01
    -16.508  0.0000E+00  0.2000E+01
    -16.482  0.0000E+00  0.2000E+01
    -16.455  0.0000E+00  0.2000E+01
    -16.429  0.0000E+00  0.2000E+01
    -16.403  0.0000E+00  0.2000E+01
    -16.376  0.0000E+00  0.2000E+01
    -16.350  0.0000E+00  0.2000E+01
    -16.323  0.3864E-12  0.2000E+01
    -16.297  0.3760E-03  0.2000E+01
    -16.270  0.9388E+00  0.2025E+01
    -16.244  0.6508E+00  0.2042E+01
    -16.218  0.5045E+01  0.2175E+01
    -16.191  0.2189E+01  0.2233E+01
    -16.165  0.3450E+01  0.2324E+01
    -16.138  0.1926E+01  0.2375E+01
    -16.112  0.1309E+00  0.2378E+01
    -16.086  0.6160E+01  0.2541E+01
    -16.059  0.6191E+01  0.2705E+01
    -16.033  0.1031E+01  0.2732E+01
    -16.006  0.5964E+01  0.2889E+01
    -15.980  0.2606E+01  0.2958E+01
    -15.954  0.1063E+00  0.2961E+01
    -15.927  0.1964E+01  0.3013E+01
    -15.901  0.4624E-01  0.3014E+01
    -15.874  0.4676E+01  0.3137E+01
    -15.848  0.4784E+01  0.3264E+01
    -15.822  0.2465E-02  0.3264E+01
    -15.795  0.4076E-11  0.3264E+01
    -15.769  0.3048E-13  0.3264E+01
    -15.742  0.1923E-03  0.3264E+01
    -15.716  0.2561E+01  0.3332E+01
    -15.690  0.9668E+01  0.3587E+01
    -15.663  0.3940E+00  0.3597E+01
    -15.637  0.4314E-06  0.3597E+01
    -15.610  0.4215E-01  0.3598E+01
    -15.584  0.2928E+01  0.3676E+01
    -15.558  0.2980E+01  0.3754E+01
    -15.531  0.3612E+00  0.3764E+01
    -15.505  0.1192E+01  0.3795E+01
    -15.478  0.2136E+01  0.3852E+01
    -15.452  0.2937E+01  0.3929E+01
    -15.425  0.4646E+01  0.4052E+01
    -15.399  0.1711E+01  0.4097E+01
    -15.373  0.4418E-04  0.4097E+01
    -15.346  0.6003E-01  0.4099E+01
    -15.320  0.7935E+01  0.4308E+01
    -15.293  0.4625E+01  0.4430E+01
    -15.267  0.2578E-02  0.4431E+01
    -15.241  0.2275E-02  0.4431E+01
    -15.214  0.4024E+01  0.4537E+01
    -15.188  0.2286E+01  0.4597E+01
    -15.161  0.3845E+01  0.4699E+01
    -15.135  0.3781E+01  0.4799E+01
    -15.109  0.4458E+01  0.4916E+01
    -15.082  0.5129E+01  0.5052E+01
    -15.056  0.5174E+01  0.5188E+01
    -15.029  0.1971E+01  0.5241E+01
    -15.003  0.2809E+01  0.5315E+01
    -14.977  0.2791E+01  0.5388E+01
    -14.950  0.1970E-01  0.5389E+01
    -14.924  0.4018E+01  0.5495E+01
    -14.897  0.5442E+01  0.5639E+01
    -14.871  0.6449E-02  0.5639E+01
    -14.845  0.6046E-10  0.5639E+01
    -14.818  0.2115E-02  0.5639E+01
    -14.792  0.2611E+01  0.5708E+01
    -14.765  0.6768E+01  0.5887E+01
    -14.739  0.8576E-01  0.5889E+01
    -14.712  0.4120E-02  0.5889E+01
    -14.686  0.2412E+01  0.5953E+01
    -14.660  0.8054E+00  0.5974E+01
    -14.633  0.9716E+00  0.6000E+01
    -14.607  0.1462E-01  0.6000E+01
    -14.580  0.1548E-08  0.6000E+01
    -14.554  0.0000E+00  0.6000E+01
    -14.528  0.0000E+00  0.6000E+01
    -14.501  0.0000E+00  0.6000E+01
    -14.475  0.0000E+00  0.6000E+01
    -14.448  0.0000E+00  0.6000E+01
    -14.422  0.0000E+00  0.6000E+01
    -14.396  0.0000E+00  0.6000E+01
    -14.369  0.0000E+00  0.6000E+01
    -14.343  0.0000E+00  0.6000E+01
    -14.316  0.0000E+00  0.6000E+01
    -14.290  0.0000E+00  0.6000E+01
    -14.264  0.0000E+00  0.6000E+01
    -14.237  0.0000E+00  0.6000E+01
    -14.211  0.0000E+00  0.6000E+01
    -14.184  0.0000E+00  0.6000E+01
    -14.158  0.0000E+00  0.6000E+01
    -14.132  0.0000E+00  0.6000E+01
    -14.105  0.0000E+00  0.6000E+01
    -14.079  0.0000E+00  0.6000E+01
    -14.052  0.0000E+00  0.6000E+01
    -14.026  0.0000E+00  0.6000E+01
    -13.999  0.0000E+00  0.6000E+01
    -13.973  0.0000E+00  0.6000E+01
    -13.947  0.0000E+00  0.6000E+01
    -13.920  0.0000E+00  0.6000E+01
    -13.894  0.0000E+00  0.6000E+01
    -13.867  0.0000E+00  0.6000E+01
    -13.841  0.0000E+00  0.6000E+01
    -13.815  0.0000E+00  0.6000E+01
    -13.788  0.0000E+00  0.6000E+01
    -13.762  0.0000E+00  0.6000E+01
    -13.735  0.0000E+00  0.6000E+01
    -13.709  0.0000E+00  0.6000E+01
    -13.683  0.0000E+00  0.6000E+01
    -13.656  0.0000E+00  0.6000E+01
    -13.630  0.0000E+00  0.6000E+01
    -13.603  0.0000E+00  0.6000E+01
    -13.577  0.0000E+00  0.6000E+01
    -13.551  0.0000E+00  0.6000E+01
    -13.524  0.0000E+00  0.6000E+01
    -13.498  0.0000E+00  0.6000E+01
    -13.471  0.0000E+00  0.6000E+01
    -13.445  0.0000E+00  0.6000E+01
    -13.419  0.0000E+00  0.6000E+01
    -13.392  0.0000E+00  0.6000E+01
    -13.366  0.0000E+00  0.6000E+01
    -13.339  0.0000E+00  0.6000E+01
    -13.313  0.0000E+00  0.6000E+01
    -13.286  0.0000E+00  0.6000E+01
    -13.260  0.0000E+00  0.6000E+01
    -13.234  0.0000E+00  0.6000E+01
    -13.207  0.0000E+00  0.6000E+01
    -13.181  0.0000E+00  0.6000E+01
    -13.154  0.0000E+00  0.6000E+01
    -13.128  0.0000E+00  0.6000E+01
    -13.102  0.0000E+00  0.6000E+01
    -13.075  0.0000E+00  0.6000E+01
    -13.049  0.0000E+00  0.6000E+01
    -13.022  0.0000E+00  0.6000E+01
    -12.996  0.0000E+00  0.6000E+01
    -12.970  0.0000E+00  0.6000E+01
    -12.943  0.0000E+00  0.6000E+01
    -12.917  0.0000E+00  0.6000E+01
    -12.890  0.1323E-09  0.6000E+01
    -12.864  0.6279E-02  0.6000E+01
    -12.838  0.1355E+01  0.6036E+01
    -12.811  0.2603E+01  0.6105E+01
    -12.785  0.7697E+00  0.6125E+01
    -12.758  0.2601E-03  0.6125E+01
    -12.732  0.1517E+01  0.6165E+01
    -12.706  0.1801E+01  0.6213E+01
    -12.679  0.5916E+01  0.6369E+01
    -12.653  0.4899E+00  0.6382E+01
    -12.626  0.5909E+01  0.6538E+01
    -12.600  0.2196E+01  0.6596E+01
    -12.573  0.1104E+01  0.6625E+01
    -12.547  0.3099E+01  0.6707E+01
    -12.521  0.3211E+01  0.6792E+01
    -12.494  0.6483E-03  0.6792E+01
    -12.468  0.1061E+00  0.6794E+01
    -12.441  0.4765E+01  0.6920E+01
    -12.415  0.4591E+01  0.7042E+01
    -12.389  0.8284E-02  0.7042E+01
    -12.362  0.2362E+01  0.7104E+01
    -12.336  0.4713E+01  0.7229E+01
    -12.309  0.1186E+02  0.7542E+01
    -12.283  0.7186E+01  0.7732E+01
    -12.257  0.1708E+00  0.7736E+01
    -12.230  0.5039E-04  0.7736E+01
    -12.204  0.1059E+01  0.7764E+01
    -12.177  0.2096E+01  0.7819E+01
    -12.151  0.1473E-02  0.7819E+01
    -12.125  0.4971E-11  0.7819E+01
    -12.098  0.1225E-02  0.7819E+01
    -12.072  0.2036E+01  0.7873E+01
    -12.045  0.1127E+01  0.7903E+01
    -12.019  0.2604E+01  0.7972E+01
    -11.993  0.5433E+00  0.7986E+01
    -11.966  0.6263E-05  0.7986E+01
    -11.940  0.4027E+00  0.7997E+01
    -11.913  0.3240E+01  0.8082E+01
    -11.887  0.5761E+01  0.8234E+01
    -11.860  0.6305E-01  0.8236E+01
    -11.834  0.2843E+00  0.8244E+01
    -11.808  0.5896E+01  0.8399E+01
    -11.781  0.1306E+00  0.8403E+01
    -11.755  0.3761E-06  0.8403E+01
    -11.728  0.2344E+00  0.8409E+01
    -11.702  0.2887E+01  0.8485E+01
    -11.676  0.3475E-01  0.8486E+01
    -11.649  0.2676E-08  0.8486E+01
    -11.623  0.0000E+00  0.8486E+01
    -11.596  0.4989E-11  0.8486E+01
    -11.570  0.1914E-02  0.8486E+01
    -11.544  0.2179E+01  0.8544E+01
    -11.517  0.1328E+01  0.8579E+01
    -11.491  0.1745E+01  0.8625E+01
    -11.464  0.7136E-02  0.8625E+01
    -11.438  0.6402E+01  0.8794E+01
    -11.412  0.6219E+01  0.8958E+01
    -11.385  0.1789E+01  0.9006E+01
    -11.359  0.1367E+01  0.9042E+01
    -11.332  0.1501E-03  0.9042E+01
    -11.306  0.0000E+00  0.9042E+01
    -11.280  0.1730E-08  0.9042E+01
    -11.253  0.4302E-01  0.9043E+01
    -11.227  0.5994E+01  0.9201E+01
    -11.200  0.8003E+00  0.9222E+01
    -11.174  0.6264E-05  0.9222E+01
    -11.147  0.9621E-07  0.9222E+01
    -11.121  0.1469E+00  0.9226E+01
    -11.095  0.4825E+01  0.9354E+01
    -11.068  0.6991E+01  0.9538E+01
    -11.042  0.6600E+00  0.9556E+01
    -11.015  0.1845E+01  0.9604E+01
    -10.989  0.4462E+01  0.9722E+01
    -10.963  0.4522E-02  0.9722E+01
    -10.936  0.3667E-09  0.9722E+01
    -10.910  0.1430E-01  0.9723E+01
    -10.883  0.2730E+01  0.9795E+01
    -10.857  0.4112E+00  0.9806E+01
    -10.831  0.7487E+00  0.9825E+01
    -10.804  0.2403E+01  0.9889E+01
    -10.778  0.3996E-02  0.9889E+01
    -10.751  0.4023E-06  0.9889E+01
    -10.725  0.2712E+00  0.9896E+01
    -10.699  0.5848E+01  0.1005E+02
    -10.672  0.6216E+01  0.1021E+02
    -10.646  0.2881E+00  0.1022E+02
    -10.619  0.1848E-06  0.1022E+02
    -10.593  0.0000E+00  0.1022E+02
    -10.567  0.7507E-09  0.1022E+02
    -10.540  0.1356E-01  0.1022E+02
    -10.514  0.1425E+01  0.1026E+02
    -10.487  0.1392E+00  0.1026E+02
    -10.461  0.2880E-06  0.1026E+02
    -10.434  0.0000E+00  0.1026E+02
    -10.408  0.0000E+00  0.1026E+02
    -10.382  0.3287E-10  0.1026E+02
    -10.355  0.6845E-02  0.1026E+02
    -10.329  0.4715E+01  0.1039E+02
    -10.302  0.1590E+01  0.1043E+02
    -10.276  0.3368E-04  0.1043E+02
    -10.250  0.0000E+00  0.1043E+02
    -10.223  0.1006E-11  0.1043E+02
    -10.197  0.8600E-03  0.1043E+02
    -10.170  0.1921E+01  0.1048E+02
    -10.144  0.1233E+01  0.1051E+02
    -10.118  0.9518E-04  0.1051E+02
    -10.091  0.0000E+00  0.1051E+02
    -10.065  0.0000E+00  0.1051E+02
    -10.038  0.0000E+00  0.1051E+02
    -10.012  0.0000E+00  0.1051E+02
     -9.986  0.0000E+00  0.1051E+02
     -9.959  0.2959E-10  0.1051E+02
     -9.933  0.1745E-02  0.1051E+02
     -9.906  0.4433E+00  0.1053E+02
     -9.880  0.8092E-01  0.1053E+02
     -9.854  0.5230E-06  0.1053E+02
     -9.827  0.0000E+00  0.1053E+02
     -9.801  0.3251E-10  0.1053E+02
     -9.774  0.6307E-02  0.1053E+02
     -9.748  0.4641E+01  0.1065E+02
     -9.721  0.7174E+01  0.1084E+02
     -9.695  0.8021E+00  0.1086E+02
     -9.669  0.3436E-05  0.1086E+02
     -9.642  0.0000E+00  0.1086E+02
     -9.616  0.0000E+00  0.1086E+02
     -9.589  0.2426E-07  0.1086E+02
     -9.563  0.1022E+00  0.1086E+02
     -9.537  0.3941E+01  0.1097E+02
     -9.510  0.1641E+00  0.1097E+02
     -9.484  0.2645E-02  0.1097E+02
     -9.457  0.2279E+01  0.1103E+02
     -9.431  0.8735E+00  0.1106E+02
     -9.405  0.4161E-04  0.1106E+02
     -9.378  0.1327E+01  0.1109E+02
     -9.352  0.4974E+01  0.1122E+02
     -9.325  0.1297E+01  0.1126E+02
     -9.299  0.1869E+01  0.1131E+02
     -9.273  0.7326E-03  0.1131E+02
     -9.246  0.7340E-12  0.1131E+02
     -9.220  0.0000E+00  0.1131E+02
     -9.193  0.3736E-06  0.1131E+02
     -9.167  0.2395E+00  0.1131E+02
     -9.141  0.2897E+01  0.1139E+02
     -9.114  0.5201E+01  0.1153E+02
     -9.088  0.6701E+01  0.1170E+02
     -9.061  0.7403E+00  0.1172E+02
     -9.035  0.7203E+00  0.1174E+02
     -9.008  0.2431E+01  0.1181E+02
     -8.982  0.5506E+00  0.1182E+02
     -8.956  0.8176E+01  0.1204E+02
     -8.929  0.3899E+01  0.1214E+02
     -8.903  0.1818E+01  0.1219E+02
     -8.876  0.1339E+01  0.1222E+02
     -8.850  0.1365E-03  0.1222E+02
     -8.824  0.1533E-01  0.1222E+02
     -8.797  0.5165E+01  0.1236E+02
     -8.771  0.1131E+01  0.1239E+02
     -8.744  0.3626E-04  0.1239E+02
     -8.718  0.8930E+00  0.1241E+02
     -8.692  0.2261E+01  0.1247E+02
     -8.665  0.9851E+00  0.1250E+02
     -8.639  0.5947E+00  0.1251E+02
     -8.612  0.4075E-04  0.1251E+02
     -8.586  0.0000E+00  0.1251E+02
     -8.560  0.0000E+00  0.1251E+02
     -8.533  0.4649E-12  0.1251E+02
     -8.507  0.5801E-03  0.1251E+02
     -8.480  0.1797E+01  0.1256E+02
     -8.454  0.2766E+01  0.1263E+02
     -8.428  0.7081E+01  0.1282E+02
     -8.401  0.3929E+01  0.1293E+02
     -8.375  0.8560E+01  0.1315E+02
     -8.348  0.2781E+01  0.1322E+02
     -8.322  0.5963E+01  0.1338E+02
     -8.295  0.6270E+01  0.1355E+02
     -8.269  0.1624E+01  0.1359E+02
     -8.243  0.1829E+01  0.1364E+02
     -8.216  0.6487E-03  0.1364E+02
     -8.190  0.5781E-12  0.1364E+02
     -8.163  0.0000E+00  0.1364E+02
     -8.137  0.3563E-12  0.1364E+02
     -8.111  0.5060E-03  0.1364E+02
     -8.084  0.1749E+01  0.1369E+02
     -8.058  0.1406E+01  0.1372E+02
     -8.031  0.5874E-02  0.1372E+02
     -8.005  0.2504E+01  0.1379E+02
     -7.979  0.6516E+00  0.1381E+02
     -7.952  0.6387E+01  0.1397E+02
     -7.926  0.5315E+01  0.1411E+02
     -7.899  0.9162E+00  0.1414E+02
     -7.873  0.5764E-02  0.1414E+02
     -7.847  0.1341E+01  0.1417E+02
     -7.820  0.2330E+00  0.1418E+02
     -7.794  0.3694E+01  0.1428E+02
     -7.767  0.2615E+01  0.1435E+02
     -7.741  0.2459E-03  0.1435E+02
     -7.715  0.4443E-06  0.1435E+02
     -7.688  0.2545E+00  0.1435E+02
     -7.662  0.3716E+01  0.1445E+02
     -7.635  0.7081E+01  0.1464E+02
     -7.609  0.4720E+01  0.1476E+02
     -7.582  0.8191E+00  0.1479E+02
     -7.556  0.1444E+02  0.1517E+02
     -7.530  0.5269E+00  0.1518E+02
     -7.503  0.4614E-06  0.1518E+02
     -7.477  0.0000E+00  0.1518E+02
     -7.450  0.0000E+00  0.1518E+02
     -7.424  0.0000E+00  0.1518E+02
     -7.398  0.4463E-05  0.1518E+02
     -7.371  0.5794E+00  0.1520E+02
     -7.345  0.5780E+01  0.1535E+02
     -7.318  0.6201E+00  0.1536E+02
     -7.292  0.5904E+01  0.1552E+02
     -7.266  0.2293E+01  0.1558E+02
     -7.239  0.7437E+01  0.1578E+02
     -7.213  0.2869E+01  0.1585E+02
     -7.186  0.1953E+01  0.1591E+02
     -7.160  0.4642E+01  0.1603E+02
     -7.134  0.6404E-01  0.1603E+02
     -7.107  0.4649E+00  0.1604E+02
     -7.081  0.2065E-01  0.1604E+02
     -7.054  0.5717E+01  0.1619E+02
     -7.028  0.2678E+01  0.1626E+02
     -7.002  0.1652E+01  0.1631E+02
     -6.975  0.7321E+01  0.1650E+02
     -6.949  0.4975E+00  0.1651E+02
     -6.922  0.3256E-05  0.1651E+02
     -6.896  0.3084E-04  0.1651E+02
     -6.869  0.9346E+00  0.1654E+02
     -6.843  0.2326E+01  0.1660E+02
     -6.817  0.5872E+01  0.1676E+02
     -6.790  0.2370E+01  0.1682E+02
     -6.764  0.1121E+01  0.1685E+02
     -6.737  0.8340E-02  0.1685E+02
     -6.711  0.2603E+01  0.1692E+02
     -6.685  0.1335E+01  0.1695E+02
     -6.658  0.6112E+01  0.1711E+02
     -6.632  0.4627E+00  0.1713E+02
     -6.605  0.4071E+01  0.1723E+02
     -6.579  0.2853E+01  0.1731E+02
     -6.553  0.6270E+01  0.1747E+02
     -6.526  0.7009E+01  0.1766E+02
     -6.500  0.2641E+01  0.1773E+02
     -6.473  0.1138E+02  0.1803E+02
     -6.447  0.4867E+00  0.1804E+02
     -6.421  0.2353E+01  0.1810E+02
     -6.394  0.8598E+00  0.1813E+02
     -6.368  0.2951E+01  0.1820E+02
     -6.341  0.2911E+01  0.1828E+02
     -6.315  0.6502E+01  0.1845E+02
     -6.289  0.1726E+01  0.1850E+02
     -6.262  0.9150E+01  0.1874E+02
     -6.236  0.5764E+01  0.1889E+02
     -6.209  0.2488E+01  0.1896E+02
     -6.183  0.4075E+00  0.1897E+02
     -6.156  0.8779E+01  0.1920E+02
     -6.130  0.2413E+01  0.1926E+02
     -6.104  0.4182E+01  0.1937E+02
     -6.077  0.2904E-02  0.1938E+02
     -6.051  0.6255E-01  0.1938E+02
     -6.024  0.9738E+00  0.1940E+02
     -5.998  0.1653E-01  0.1940E+02
     -5.972  0.1091E+01  0.1943E+02
     -5.945  0.3445E+01  0.1952E+02
     -5.919  0.5457E+01  0.1967E+02
     -5.892  0.2089E+01  0.1972E+02
     -5.866  0.1511E-01  0.1972E+02
     -5.840  0.3461E+01  0.1981E+02
     -5.813  0.2849E+01  0.1989E+02
     -5.787  0.3628E-03  0.1989E+02
     -5.760  0.0000E+00  0.1989E+02
     -5.734  0.0000E+00  0.1989E+02
     -5.708  0.9509E-05  0.1989E+02
     -5.681  0.1176E+01  0.1992E+02
     -5.655  0.1098E+02  0.2021E+02
     -5.628  0.4694E+00  0.2022E+02
     -5.602  0.2888E+00  0.2023E+02
     -5.576  0.2841E+01  0.2030E+02
     -5.549  0.2565E-01  0.2031E+02
     -5.523  0.1322E-08  0.2031E+02
     -5.496  0.5456E-08  0.2031E+02
     -5.470  0.7012E-01  0.2031E+02
     -5.443  0.6816E+01  0.2049E+02
     -5.417  0.2580E+01  0.2056E+02
     -5.391  0.1559E-02  0.2056E+02
     -5.364  0.3381E-09  0.2056E+02
     -5.338  0.2039E-01  0.2056E+02
     -5.311  0.5907E+01  0.2071E+02
     -5.285  0.5084E+01  0.2085E+02
     -5.259  0.1683E+00  0.2085E+02
     -5.232  0.4888E+01  0.2098E+02
     -5.206  0.4738E+01  0.2110E+02
     -5.179  0.3970E+01  0.2121E+02
     -5.153  0.2046E+01  0.2126E+02
     -5.127  0.3569E-02  0.2126E+02
     -5.100  0.5040E+01  0.2140E+02
     -5.074  0.1766E+02  0.2186E+02
     -5.047  0.4827E+01  0.2199E+02
     -5.021  0.1458E+02  0.2238E+02
     -4.995  0.4398E+01  0.2249E+02
     -4.968  0.1849E+02  0.2298E+02
     -4.942  0.3887E+01  0.2308E+02
     -4.915  0.1597E+01  0.2313E+02
     -4.889  0.1733E+01  0.2317E+02
     -4.863  0.6187E+01  0.2333E+02
     -4.836  0.6251E+01  0.2350E+02
     -4.810  0.8496E+01  0.2372E+02
     -4.783  0.2611E+01  0.2379E+02
     -4.757  0.7950E+01  0.2400E+02
     -4.730  0.9537E+00  0.2403E+02
     -4.704  0.5293E-05  0.2403E+02
     -4.678  0.0000E+00  0.2403E+02
     -4.651  0.1051E-07  0.2403E+02
     -4.625  0.6145E-01  0.2403E+02
     -4.598  0.2945E+01  0.2411E+02
     -4.572  0.3129E+01  0.2419E+02
     -4.546  0.3331E+01  0.2428E+02
     -4.519  0.7820E-03  0.2428E+02
     -4.493  0.3320E-03  0.2428E+02
     -4.466  0.4613E+01  0.2440E+02
     -4.440  0.1361E+02  0.2476E+02
     -4.414  0.7295E+00  0.2478E+02
     -4.387  0.2754E+01  0.2485E+02
     -4.361  0.4545E+00  0.2486E+02
     -4.334  0.5770E+01  0.2502E+02
     -4.308  0.4731E+00  0.2503E+02
     -4.282  0.1183E-02  0.2503E+02
     -4.255  0.2025E+01  0.2508E+02
     -4.229  0.1130E+01  0.2511E+02
     -4.202  0.3819E-03  0.2511E+02
     -4.176  0.1598E+01  0.2515E+02
     -4.150  0.1557E+01  0.2519E+02
     -4.123  0.5666E-03  0.2519E+02
     -4.097  0.3055E+01  0.2528E+02
     -4.070  0.6428E+01  0.2544E+02
     -4.044  0.2961E+01  0.2552E+02
     -4.018  0.7084E+01  0.2571E+02
     -3.991  0.5695E+01  0.2586E+02
     -3.965  0.6372E+00  0.2588E+02
     -3.938  0.5651E+01  0.2603E+02
     -3.912  0.4671E-01  0.2603E+02
     -3.885  0.2971E+00  0.2604E+02
     -3.859  0.1242E+02  0.2636E+02
     -3.833  0.3062E+01  0.2644E+02
     -3.806  0.1559E-03  0.2644E+02
     -3.780  0.1006E-01  0.2644E+02
     -3.753  0.4937E+01  0.2658E+02
     -3.727  0.1364E+01  0.2661E+02
     -3.701  0.3641E-02  0.2661E+02
     -3.674  0.1284E+01  0.2665E+02
     -3.648  0.1165E+01  0.2668E+02
     -3.621  0.1614E+02  0.2710E+02
     -3.595  0.5077E+01  0.2724E+02
     -3.569  0.6546E+01  0.2741E+02
     -3.542  0.8286E+01  0.2763E+02
     -3.516  0.9412E+00  0.2765E+02
     -3.489  0.1699E+01  0.2770E+02
     -3.463  0.7721E+01  0.2790E+02
     -3.437  0.8773E-01  0.2790E+02
     -3.410  0.2405E+01  0.2797E+02
     -3.384  0.2319E+01  0.2803E+02
     -3.357  0.1042E+02  0.2830E+02
     -3.331  0.5328E+01  0.2844E+02
     -3.305  0.2275E+01  0.2850E+02
     -3.278  0.4919E+01  0.2863E+02
     -3.252  0.6094E+01  0.2880E+02
     -3.225  0.9772E+01  0.2905E+02
     -3.199  0.2185E+01  0.2911E+02
     -3.172  0.1098E+01  0.2914E+02
     -3.146  0.2766E+01  0.2921E+02
     -3.120  0.3435E+00  0.2922E+02
     -3.093  0.1483E-04  0.2922E+02
     -3.067  0.1663E-11  0.2922E+02
     -3.040  0.1108E-02  0.2922E+02
     -3.014  0.2182E+01  0.2928E+02
     -2.988  0.4078E+01  0.2939E+02
     -2.961  0.4974E-01  0.2939E+02
     -2.935  0.1558E+01  0.2943E+02
     -2.908  0.4746E+01  0.2956E+02
     -2.882  0.5207E+00  0.2957E+02
     -2.856  0.2633E+01  0.2964E+02
     -2.829  0.9368E-02  0.2964E+02
     -2.803  0.1393E-09  0.2964E+02
     -2.776  0.5473E-11  0.2964E+02
     -2.750  0.2003E-02  0.2964E+02
     -2.724  0.2193E+01  0.2970E+02
     -2.697  0.9631E+00  0.2972E+02
     -2.671  0.2268E+01  0.2978E+02
     -2.644  0.8847E+00  0.2981E+02
     -2.618  0.3466E+00  0.2981E+02
     -2.592  0.2790E+01  0.2989E+02
     -2.565  0.1925E-01  0.2989E+02
     -2.539  0.1011E+01  0.2992E+02
     -2.512  0.2143E+01  0.2997E+02
     -2.486  0.5120E-02  0.2997E+02
     -2.459  0.8847E+00  0.3000E+02
     -2.433  0.1638E+00  0.3000E+02
     -2.407  0.1087E-05  0.3000E+02
     -2.380  0.0000E+00  0.3000E+02
     -2.354  0.0000E+00  0.3000E+02
     -2.327  0.0000E+00  0.3000E+02
     -2.301  0.0000E+00  0.3000E+02
     -2.275  0.0000E+00  0.3000E+02
     -2.248  0.0000E+00  0.3000E+02
     -2.222  0.0000E+00  0.3000E+02
     -2.195  0.0000E+00  0.3000E+02
     -2.169  0.0000E+00  0.3000E+02
     -2.143  0.0000E+00  0.3000E+02
     -2.116  0.0000E+00  0.3000E+02
     -2.090  0.0000E+00  0.3000E+02
     -2.063  0.0000E+00  0.3000E+02
     -2.037  0.0000E+00  0.3000E+02
     -2.011  0.0000E+00  0.3000E+02
     -1.984  0.0000E+00  0.3000E+02
     -1.958  0.0000E+00  0.3000E+02
     -1.931  0.0000E+00  0.3000E+02
     -1.905  0.0000E+00  0.3000E+02
     -1.879  0.2803E-14  0.3000E+02
     -1.852  0.2783E-04  0.3000E+02
     -1.826  0.5426E+00  0.3001E+02
     -1.799  0.1097E+01  0.3004E+02
     -1.773  0.2946E+01  0.3012E+02
     -1.746  0.1478E+00  0.3012E+02
     -1.720  0.9896E-07  0.3013E+02
     -1.694  0.7430E-03  0.3013E+02
     -1.667  0.1874E+01  0.3017E+02
     -1.641  0.1281E+01  0.3021E+02
     -1.614  0.7022E-03  0.3021E+02
     -1.588  0.3151E+01  0.3029E+02
     -1.562  0.3199E+01  0.3038E+02
     -1.535  0.5594E+01  0.3052E+02
     -1.509  0.6779E+00  0.3054E+02
     -1.482  0.1554E+00  0.3055E+02
     -1.456  0.5155E+01  0.3068E+02
     -1.430  0.4154E+01  0.3079E+02
     -1.403  0.2539E-02  0.3079E+02
     -1.377  0.4364E-11  0.3079E+02
     -1.350  0.1050E-09  0.3079E+02
     -1.324  0.1190E-01  0.3079E+02
     -1.298  0.5116E+01  0.3093E+02
     -1.271  0.4228E+01  0.3104E+02
     -1.245  0.1115E+00  0.3104E+02
     -1.218  0.2521E-01  0.3104E+02
     -1.192  0.5813E+01  0.3120E+02
     -1.166  0.3614E+01  0.3129E+02
     -1.139  0.7452E+00  0.3131E+02
     -1.113  0.6116E+01  0.3147E+02
     -1.086  0.2874E+01  0.3155E+02
     -1.060  0.2872E+01  0.3162E+02
     -1.033  0.2983E-01  0.3162E+02
     -1.007  0.1874E-08  0.3162E+02
     -0.981  0.0000E+00  0.3162E+02
     -0.954  0.0000E+00  0.3162E+02
     -0.928  0.0000E+00  0.3162E+02
     -0.901  0.8368E-06  0.3163E+02
     -0.875  0.3162E+00  0.3163E+02
     -0.849  0.2940E+01  0.3171E+02
     -0.822  0.2978E+01  0.3179E+02
     -0.796  0.7720E-01  0.3179E+02
     -0.769  0.1849E-07  0.3179E+02
     -0.743  0.0000E+00  0.3179E+02
     -0.717  0.0000E+00  0.3179E+02
     -0.690  0.2920E-16  0.3179E+02
     -0.664  0.1290E-05  0.3179E+02
     -0.637  0.1063E+00  0.3179E+02
     -0.611  0.1416E+01  0.3183E+02
     -0.585  0.5295E+01  0.3197E+02
     -0.558  0.1988E-01  0.3197E+02
     -0.532  0.3170E-09  0.3197E+02
     -0.505  0.0000E+00  0.3197E+02
     -0.479  0.0000E+00  0.3197E+02
     -0.453  0.0000E+00  0.3197E+02
     -0.426  0.0000E+00  0.3197E+02
     -0.400  0.0000E+00  0.3197E+02
     -0.373  0.0000E+00  0.3197E+02
     -0.347  0.0000E+00  0.3197E+02
     -0.320  0.0000E+00  0.3197E+02
     -0.294  0.0000E+00  0.3197E+02
     -0.268  0.0000E+00  0.3197E+02
     -0.241  0.0000E+00  0.3197E+02
     -0.215  0.0000E+00  0.3197E+02
     -0.188  0.0000E+00  0.3197E+02
     -0.162  0.0000E+00  0.3197E+02
     -0.136  0.0000E+00  0.3197E+02
     -0.109  0.0000E+00  0.3197E+02
     -0.083  0.3617E-07  0.3197E+02
     -0.056  0.7846E-01  0.3197E+02
     -0.030  0.1972E+01  0.3203E+02
     -0.004  0.5364E-01  0.3203E+02
      0.023  0.1367E-07  0.3203E+02
      0.049  0.0000E+00  0.3203E+02
      0.076  0.0000E+00  0.3203E+02
      0.102  0.0000E+00  0.3203E+02
      0.128  0.0000E+00  0.3203E+02
      0.155  0.0000E+00  0.3203E+02
      0.181  0.0000E+00  0.3203E+02
      0.208  0.0000E+00  0.3203E+02
      0.234  0.0000E+00  0.3203E+02
      0.260  0.0000E+00  0.3203E+02
      0.287  0.0000E+00  0.3203E+02
      0.313  0.0000E+00  0.3203E+02
      0.340  0.0000E+00  0.3203E+02
      0.366  0.0000E+00  0.3203E+02