<?xml version="1.0" encoding="ISO-8859-1"?>
<modeling>
 <generator>
  <i name="program" type="string">vasp </i>
  <i name="version" type="string">5.4.4.18Apr17-6-g9f103f2a35  </i>
  <i name="subversion" type="string">(build Mar 30 2023 15:39:25) complex            parallel </i>
  <i name="platform" type="string">LinuxIFC </i>
  <i name="date" type="string">2023 06 19 </i>
  <i name="time" type="string">11:25:27 </i>
 </generator>
 <incar>
  <i type="string" name="SYSTEM"> BC3-optical</i>
  <i type="int" name="ISTART">     1</i>
  <i type="string" name="PREC">accurate</i>
  <i type="string" name="ALGO"> Normal</i>
  <i type="int" name="ICHARG">     2</i>
  <i name="EDIFF">      0.00000001</i>
  <i name="ENCUT">    450.00000000</i>
  <i type="int" name="NBANDS">   128</i>
  <i type="int" name="NEDOS">  2400</i>
  <i type="logical" name="LREAL"> F  </i>
  <i type="int" name="ISMEAR">     0</i>
  <i name="SIGMA">      0.01000000</i>
  <i type="int" name="NWRITE">     3</i>
  <i type="logical" name="LOPTICS"> T  </i>
  <v type="int" name="KPOINT_BSE">    -1     0     0     0</v>
  <i name="CSHIFT">      0.10000000</i>
  <i name="CSHIFT">      0.10000000</i>
 </incar>
 <structure name="primitive_cell" >
  <crystal>
   <varray name="basis" >
    <v>       4.48084843       2.58701885       0.00000000 </v>
    <v>      -4.48084843       2.58701885       0.00000000 </v>
    <v>       0.00000000       0.00000000       8.52022140 </v>
   </varray>
   <i name="volume">    197.53348383 </i>
   <varray name="rec_basis" >
    <v>       0.11158601       0.19327265       0.00000000 </v>
    <v>      -0.11158601       0.19327265       0.00000000 </v>
    <v>       0.00000000       0.00000000       0.11736784 </v>
   </varray>
  </crystal>
  <varray name="positions" >
   <v>       0.33333300      -0.33333400       0.25000000 </v>
   <v>       0.15869124       0.31738348       0.25000000 </v>
   <v>      -0.31738448      -0.15869224       0.25000000 </v>
   <v>       0.15869124      -0.15869224       0.25000000 </v>
   <v>      -0.15869224       0.15869124       0.25000000 </v>
   <v>       0.31738348       0.15869124       0.25000000 </v>
   <v>      -0.15869224      -0.31738448       0.25000000 </v>
   <v>      -0.33333400       0.33333300       0.25000000 </v>
  </varray>
 </structure>
 <varray name="primitive_index" >
  <v type="int" >        1 </v>
  <v type="int" >        3 </v>
  <v type="int" >        7 </v>
  <v type="int" >        5 </v>
  <v type="int" >        6 </v>
  <v type="int" >        4 </v>
  <v type="int" >        8 </v>
  <v type="int" >        2 </v>
 </varray>
 <kpoints>
  <generation param="Gamma">
   <v type="int" name="divisions">      12       12        1 </v>
   <v name="usershift">      0.00000000       0.00000000       0.00000000 </v>
   <v name="genvec1">      0.08333333       0.00000000       0.00000000 </v>
   <v name="genvec2">      0.00000000       0.08333333       0.00000000 </v>
   <v name="genvec3">      0.00000000       0.00000000       1.00000000 </v>
   <v name="shift">      0.00000000       0.00000000       0.00000000 </v>
  </generation>
  <varray name="kpointlist" >
   <v>       0.00000000       0.00000000       0.00000000 </v>
   <v>       0.08333333       0.00000000       0.00000000 </v>
   <v>       0.16666667       0.00000000       0.00000000 </v>
   <v>       0.25000000      -0.00000000       0.00000000 </v>
   <v>       0.33333333      -0.00000000       0.00000000 </v>
   <v>       0.41666667       0.00000000       0.00000000 </v>
   <v>       0.50000000      -0.00000000       0.00000000 </v>
   <v>       0.08333333       0.08333333       0.00000000 </v>
   <v>       0.16666667       0.08333333       0.00000000 </v>
   <v>       0.25000000       0.08333333       0.00000000 </v>
   <v>       0.33333333       0.08333333       0.00000000 </v>
   <v>       0.41666667       0.08333333       0.00000000 </v>
   <v>       0.16666667       0.16666667       0.00000000 </v>
   <v>       0.25000000       0.16666667       0.00000000 </v>
   <v>       0.33333333       0.16666667       0.00000000 </v>
   <v>       0.41666667       0.16666667       0.00000000 </v>
   <v>       0.25000000       0.25000000       0.00000000 </v>
   <v>       0.33333333       0.25000000       0.00000000 </v>
   <v>       0.33333333       0.33333333       0.00000000 </v>
  </varray>
  <varray name="weights" >
   <v>       0.00694444 </v>
   <v>       0.04166667 </v>
   <v>       0.04166667 </v>
   <v>       0.04166667 </v>
   <v>       0.04166667 </v>
   <v>       0.04166667 </v>
   <v>       0.02083333 </v>
   <v>       0.04166667 </v>
   <v>       0.08333333 </v>
   <v>       0.08333333 </v>
   <v>       0.08333333 </v>
   <v>       0.08333333 </v>
   <v>       0.04166667 </v>
   <v>       0.08333333 </v>
   <v>       0.08333333 </v>
   <v>       0.04166667 </v>
   <v>       0.04166667 </v>
   <v>       0.08333333 </v>
   <v>       0.01388889 </v>
  </varray>
 </kpoints>
 <parameters>
  <separator name="general" >
   <i type="string" name="SYSTEM">BC3-optical</i>
   <i type="logical" name="LCOMPAT"> F  </i>
  </separator>
  <separator name="electronic" >
   <i type="string" name="PREC">accura</i>
   <i name="ENMAX">    450.00000000</i>
   <i name="ENAUG">    644.87300000</i>
   <i name="EDIFF">      0.00000001</i>
   <i type="int" name="IALGO">    38</i>
   <i type="int" name="IWAVPR">    10</i>
   <i type="int" name="NBANDS">   132</i>
   <i name="NELECT">     30.00000000</i>
   <i type="int" name="TURBO">     0</i>
   <i type="int" name="IRESTART">     0</i>
   <i type="int" name="NREBOOT">     0</i>
   <i type="int" name="NMIN">     0</i>
   <i name="EREF">      0.00000000</i>
   <separator name="electronic smearing" >
    <i type="int" name="ISMEAR">     0</i>
    <i name="SIGMA">      0.01000000</i>
    <i name="KSPACING">      0.50000000</i>
    <i type="logical" name="KGAMMA"> T  </i>
   </separator>
   <separator name="electronic projectors" >
    <i type="logical" name="LREAL"> F  </i>
    <v name="ROPT">      0.00000000      0.00000000</v>
    <i type="int" name="LMAXPAW">  -100</i>
    <i type="int" name="LMAXMIX">     2</i>
    <i type="logical" name="NLSPLINE"> F  </i>
   </separator>
   <separator name="electronic startup" >
    <i type="int" name="ISTART">     1</i>
    <i type="int" name="ICHARG">     2</i>
    <i type="int" name="INIWAV">     1</i>
   </separator>
   <separator name="electronic spin" >
    <i type="int" name="ISPIN">     1</i>
    <i type="logical" name="LNONCOLLINEAR"> F  </i>
    <v name="MAGMOM">      1.00000000      1.00000000      1.00000000      1.00000000      1.00000000      1.00000000      1.00000000      1.00000000</v>
    <i name="NUPDOWN">     -1.00000000</i>
    <i type="logical" name="LSORBIT"> F  </i>
    <v name="SAXIS">      0.00000000      0.00000000      1.00000000</v>
    <i type="logical" name="LSPIRAL"> F  </i>
    <v name="QSPIRAL">      0.00000000      0.00000000      0.00000000</v>
    <i type="logical" name="LZEROZ"> F  </i>
   </separator>
   <separator name="electronic exchange-correlation" >
    <i type="logical" name="LASPH"> F  </i>
    <i type="logical" name="LMETAGGA"> F  </i>
   </separator>
   <separator name="electronic convergence" >
    <i type="int" name="NELM">    60</i>
    <i type="int" name="NELMDL">     0</i>
    <i type="int" name="NELMIN">     2</i>
    <i name="ENINI">    450.00000000</i>
    <separator name="electronic convergence detail" >
     <i type="logical" name="LDIAG"> T  </i>
     <i type="logical" name="LSUBROT"> F  </i>
     <i name="WEIMIN">      0.00000000</i>
     <i name="EBREAK">      0.00000000</i>
     <i name="DEPER">      0.30000000</i>
     <i type="int" name="NRMM">     4</i>
     <i name="TIME">      0.40000000</i>
    </separator>
   </separator>
   <separator name="electronic mixer" >
    <i name="AMIX">      0.40000000</i>
    <i name="BMIX">      1.00000000</i>
    <i name="AMIN">      0.10000000</i>
    <i name="AMIX_MAG">      1.60000000</i>
    <i name="BMIX_MAG">      1.00000000</i>
    <separator name="electronic mixer details" >
     <i type="int" name="IMIX">     4</i>
     <i type="logical" name="MIXFIRST"> F  </i>
     <i type="int" name="MAXMIX">   -45</i>
     <i name="WC">    100.00000000</i>
     <i type="int" name="INIMIX">     1</i>
     <i type="int" name="MIXPRE">     1</i>
     <i type="int" name="MREMOVE">     5</i>
    </separator>
   </separator>
   <separator name="electronic dipolcorrection" >
    <i type="logical" name="LDIPOL"> F  </i>
    <i type="logical" name="LMONO"> F  </i>
    <i type="int" name="IDIPOL">     0</i>
    <i name="EPSILON">      1.00000000</i>
    <v name="DIPOL">   -100.00000000   -100.00000000   -100.00000000</v>
    <i name="EFIELD">      0.00000000</i>
   </separator>
  </separator>
  <separator name="grids" >
   <i type="int" name="NGX">    36</i>
   <i type="int" name="NGY">    36</i>
   <i type="int" name="NGZ">    60</i>
   <i type="int" name="NGXF">    72</i>
   <i type="int" name="NGYF">    72</i>
   <i type="int" name="NGZF">   120</i>
   <i type="logical" name="ADDGRID"> F  </i>
  </separator>
  <separator name="ionic" >
   <i type="int" name="NSW">     0</i>
   <i type="int" name="IBRION">    -1</i>
   <i type="int" name="MDALGO">     0</i>
   <i type="int" name="ISIF">     2</i>
   <i name="PSTRESS">      0.00000000</i>
   <i name="EDIFFG">      0.00000010</i>
   <i type="int" name="NFREE">     0</i>
   <i name="POTIM">      0.50000000</i>
   <i name="SMASS">     -3.00000000</i>
   <i name="SCALEE">      1.00000000</i>
  </separator>
  <separator name="ionic md" >
   <i name="TEBEG">      0.00010000</i>
   <i name="TEEND">      0.00010000</i>
   <i type="int" name="NBLOCK">     1</i>
   <i type="int" name="KBLOCK">     1</i>
   <i type="int" name="NPACO">   256</i>
   <i name="APACO">     16.00000000</i>
  </separator>
  <separator name="symmetry" >
   <i type="int" name="ISYM">     2</i>
   <i name="SYMPREC">      0.00001000</i>
  </separator>
  <separator name="dos" >
   <i type="int" name="LORBIT">     0</i>
   <v name="RWIGS">     -1.00000000     -1.00000000</v>
   <i type="int" name="NEDOS">  2400</i>
   <i name="EMIN">     10.00000000</i>
   <i name="EMAX">    -10.00000000</i>
   <i name="EFERMI">      0.00000000</i>
  </separator>
  <separator name="writing" >
   <i type="int" name="NWRITE">     3</i>
   <i type="logical" name="LWAVE"> T  </i>
   <i type="logical" name="LDOWNSAMPLE"> F  </i>
   <i type="logical" name="LCHARG"> T  </i>
   <i type="logical" name="LPARD"> F  </i>
   <i type="logical" name="LVTOT"> F  </i>
   <i type="logical" name="LVHAR"> F  </i>
   <i type="logical" name="LELF"> F  </i>
   <i type="logical" name="LOPTICS"> T  </i>
   <v name="STM">      0.00000000      0.00000000      0.00000000      0.00000000      0.00000000      0.00000000      0.00000000</v>
  </separator>
  <separator name="performance" >
   <i type="int" name="NPAR">    12</i>
   <i type="int" name="NSIM">     4</i>
   <i type="int" name="NBLK">    -1</i>
   <i type="logical" name="LPLANE"> T  </i>
   <i type="logical" name="LSCALAPACK"> T  </i>
   <i type="logical" name="LSCAAWARE"> F  </i>
   <i type="logical" name="LSCALU"> F  </i>
   <i type="logical" name="LASYNC"> F  </i>
   <i type="logical" name="LORBITALREAL"> F  </i>
  </separator>
  <separator name="miscellaneous" >
   <i type="int" name="IDIOT">     3</i>
   <i type="int" name="ISPECIAL">     0</i>
   <i type="logical" name="LMUSIC"> F  </i>
   <v name="POMASS">     10.81100000     12.01100000</v>
   <v name="DARWINR">      0.00000000      0.00000000</v>
   <v name="DARWINV">      1.00000000      1.00000000</v>
   <i type="logical" name="LCORR"> T  </i>
  </separator>
  <i type="logical" name="GGA_COMPAT"> T  </i>
  <i type="logical" name="LBERRY"> F  </i>
  <i type="int" name="ICORELEVEL">     0</i>
  <i type="logical" name="LDAU"> F  </i>
  <i type="int" name="I_CONSTRAINED_M">     0</i>
  <separator name="electronic exchange-correlation" >
   <i type="string" name="GGA">--</i>
   <i type="int" name="VOSKOWN">     0</i>
   <i type="logical" name="LHFCALC"> F  </i>
   <i type="string" name="PRECFOCK"></i>
   <i type="logical" name="LSYMGRAD"> F  </i>
   <i type="logical" name="LHFONE"> F  </i>
   <i type="logical" name="LRHFCALC"> F  </i>
   <i type="logical" name="LTHOMAS"> F  </i>
   <i type="logical" name="LMODELHF"> F  </i>
   <i name="ENCUT4O">     -1.00000000</i>
   <i type="int" name="EXXOEP">     0</i>
   <i type="int" name="FOURORBIT">     0</i>
   <i name="AEXX">      0.00000000</i>
   <i name="HFALPHA">      0.00000000</i>
   <i name="MCALPHA">      0.00000000</i>
   <i name="ALDAX">      1.00000000</i>
   <i name="AGGAX">      1.00000000</i>
   <i name="ALDAC">      1.00000000</i>
   <i name="AGGAC">      1.00000000</i>
   <i type="int" name="NKREDX">     1</i>
   <i type="int" name="NKREDY">     1</i>
   <i type="int" name="NKREDZ">     1</i>
   <i type="logical" name="SHIFTRED"> F  </i>
   <i type="logical" name="ODDONLY"> F  </i>
   <i type="logical" name="EVENONLY"> F  </i>
   <i type="int" name="LMAXFOCK">     0</i>
   <i type="int" name="NMAXFOCKAE">     0</i>
   <i type="logical" name="LFOCKAEDFT"> F  </i>
   <i name="HFSCREEN">      0.00000000</i>
   <i name="HFSCREENC">      0.00000000</i>
   <i type="int" name="NBANDSGWLOW">     0</i>
  </separator>
  <separator name="vdW DFT" >
   <i type="logical" name="LUSE_VDW"> F  </i>
   <i name="Zab_VDW">     -0.84910000</i>
   <i name="PARAM1">      0.12340000</i>
   <i name="PARAM2">      1.00000000</i>
   <i name="PARAM3">      0.00000000</i>
  </separator>
  <separator name="model GW" >
   <i type="int" name="MODEL_GW">     0</i>
   <i name="MODEL_EPS0">     14.81501129</i>
   <i name="MODEL_ALPHA">      1.00000000</i>
  </separator>
  <separator name="linear response parameters" >
   <i type="logical" name="LEPSILON"> F  </i>
   <i type="logical" name="LRPA"> F  </i>
   <i type="logical" name="LNABLA"> F  </i>
   <i type="logical" name="LVEL"> F  </i>
   <i type="int" name="KINTER">     0</i>
   <i name="CSHIFT">      0.10000000</i>
   <i name="OMEGAMAX">     -1.00000000</i>
   <i name="DEG_THRESHOLD">      0.00200000</i>
   <i name="RTIME">     -0.10000000</i>
   <i name="WPLASMAI">      0.00000000</i>
   <v name="DFIELD">      0.00000000      0.00000000      0.00000000</v>
   <v name="WPLASMA">      0.00000000      0.00000000      0.00000000      0.00000000      0.00000000      0.00000000      0.00000000      0.00000000      0.00000000</v>
  </separator>
  <separator name="orbital magnetization" >
   <i type="logical" name="NUCIND"> F  </i>
   <v name="MAGPOS">      0.00000000      0.00000000      0.00000000</v>
   <i type="logical" name="LNICSALL"> T  </i>
   <i type="logical" name="ORBITALMAG"> F  </i>
   <i type="logical" name="LMAGBLOCH"> F  </i>
   <i type="logical" name="LCHIMAG"> F  </i>
   <i type="logical" name="LGAUGE"> T  </i>
   <i type="int" name="MAGATOM">     0</i>
   <v name="MAGDIPOL">      0.00000000      0.00000000      0.00000000</v>
   <v name="AVECCONST">      0.00000000      0.00000000      0.00000000</v>
  </separator>
  <separator name="response functions" >
   <i type="logical" name="LADDER"> F  </i>
   <i type="logical" name="LRPAFORCE"> F  </i>
   <i type="logical" name="LFXC"> F  </i>
   <i type="logical" name="LHARTREE"> T  </i>
   <i type="int" name="IBSE">     0</i>
   <v type="int" name="KPOINT">    -1     0     0     0</v>
   <i type="logical" name="LTCTE"> F  </i>
   <i type="logical" name="LTETE"> F  </i>
   <i type="logical" name="LTRIPLET"> F  </i>
   <i type="logical" name="LFXCEPS"> F  </i>
   <i type="logical" name="LFXHEG"> F  </i>
   <i type="int" name="NATURALO">     2</i>
   <i type="logical" name="L2ORDER"> F  </i>
   <i type="logical" name="LMP2LT"> F  </i>
   <i type="logical" name="LUSEW"> F  </i>
   <i name="ENCUTGW">     -2.00000000</i>
   <i name="ENCUTGWSOFT">     -2.00000000</i>
   <i name="ENCUTLF">     -1.00000000</i>
   <i type="int" name="LMAXMP2">    -1</i>
   <i name="SCISSOR">      0.00000000</i>
   <i type="int" name="NOMEGA">     0</i>
   <i type="int" name="NOMEGAR">     0</i>
   <i type="int" name="NBANDSGW">    -1</i>
   <i type="int" name="NBANDSO">    -1</i>
   <i type="int" name="NBANDSV">    -1</i>
   <i type="int" name="NELM">     1</i>
   <i type="int" name="NELMHF">     1</i>
   <i type="int" name="DIM">     3</i>
   <i type="int" name="ANTIRES">     0</i>
   <i name="OMEGAMAX">    -30.00000000</i>
   <i name="OMEGAMIN">    -30.00000000</i>
   <i name="OMEGATL">   -200.00000000</i>
   <i type="int" name="OMEGAGRID">   140</i>
   <i name="CSHIFT">      0.10000000</i>
   <i type="logical" name="SELFENERGY"> F  </i>
   <i type="logical" name="LSPECTRAL"> F  </i>
   <i type="logical" name="LSPECTRALGW"> F  </i>
   <i type="logical" name="LSINGLES"> F  </i>
   <i type="logical" name="LFERMIGW"> F  </i>
   <i type="logical" name="ODDONLYGW"> F  </i>
   <i type="logical" name="EVENONLYGW"> F  </i>
   <i type="int" name="NKREDLFX">     1</i>
   <i type="int" name="NKREDLFY">     1</i>
   <i type="int" name="NKREDLFZ">     1</i>
   <i type="int" name="MAXMEM">  2800</i>
   <i type="int" name="TELESCOPE">     0</i>
   <i type="int" name="TAUPAR">     1</i>
   <i type="int" name="OMEGAPAR">    -1</i>
   <i name="LAMBDA">      1.00000000</i>
  </separator>
  <separator name="External order field" >
   <i name="OFIELD_KAPPA">      0.00000000</i>
   <v name="OFIELD_K">      0.00000000      0.00000000      0.00000000</v>
   <i name="OFIELD_Q6_NEAR">      0.00000000</i>
   <i name="OFIELD_Q6_FAR">      0.00000000</i>
   <i name="OFIELD_A">      0.00000000</i>
  </separator>
 </parameters>
 <atominfo>
  <atoms>       8 </atoms>
  <types>       2 </types>
  <array name="atoms" >
   <dimension dim="1">ion</dimension>
   <field type="string">element</field>
   <field type="int">atomtype</field>
   <set>
    <rc><c>B </c><c>   1</c></rc>
    <rc><c>B </c><c>   1</c></rc>
    <rc><c>C </c><c>   2</c></rc>
    <rc><c>C </c><c>   2</c></rc>
    <rc><c>C </c><c>   2</c></rc>
    <rc><c>C </c><c>   2</c></rc>
    <rc><c>C </c><c>   2</c></rc>
    <rc><c>C </c><c>   2</c></rc>
   </set>
  </array>
  <array name="atomtypes" >
   <dimension dim="1">type</dimension>
   <field type="int">atomspertype</field>
   <field type="string">element</field>
   <field>mass</field>
   <field>valence</field>
   <field type="string">pseudopotential</field>
   <set>
    <rc><c>   2</c><c>B </c><c>     10.81100000</c><c>      3.00000000</c><c>  PAW_PBE B 06Sep2000                   </c></rc>
    <rc><c>   6</c><c>C </c><c>     12.01100000</c><c>      4.00000000</c><c>  PAW_PBE C 08Apr2002                   </c></rc>
   </set>
  </array>
 </atominfo>
 <structure name="initialpos" >
  <crystal>
   <varray name="basis" >
    <v>       4.48084843       2.58701885       0.00000000 </v>
    <v>      -4.48084843       2.58701885       0.00000000 </v>
    <v>       0.00000000       0.00000000       8.52022140 </v>
   </varray>
   <i name="volume">    197.53348383 </i>
   <varray name="rec_basis" >
    <v>       0.11158601       0.19327265       0.00000000 </v>
    <v>      -0.11158601       0.19327265       0.00000000 </v>
    <v>       0.00000000       0.00000000       0.11736784 </v>
   </varray>
  </crystal>
  <varray name="positions" >
   <v>       0.33333300       0.66666600       0.25000000 </v>
   <v>       0.66666600       0.33333300       0.25000000 </v>
   <v>       0.15869124       0.31738348       0.25000000 </v>
   <v>       0.31738348       0.15869124       0.25000000 </v>
   <v>       0.15869124       0.84130776       0.25000000 </v>
   <v>       0.84130776       0.15869124       0.25000000 </v>
   <v>       0.68261552       0.84130776       0.25000000 </v>
   <v>       0.84130776       0.68261552       0.25000000 </v>
  </varray>
 </structure>
 <calculation>
  <scstep>
   <time name="dav">    3.57    3.57</time>
   <time name="total">    3.67    3.67</time>
   <energy>
    <i name="alphaZ">     25.67921176 </i>
    <i name="ewald">    700.27145080 </i>
    <i name="hartreedc">  -1524.76618073 </i>
    <i name="XCdc">     91.14273073 </i>
    <i name="pawpsdc">    738.13200929 </i>
    <i name="pawaedc">   -739.83780425 </i>
    <i name="eentropy">     -0.00000000 </i>
    <i name="bandstr">   -388.64859212 </i>
    <i name="atom">   1025.20389953 </i>
    <i name="e_fr_energy">    -72.82327500 </i>
    <i name="e_wo_entrp">    -72.82327500 </i>
    <i name="e_0_energy">    -72.82327500 </i>
   </energy>
  </scstep>
  <scstep>
   <time name="dav">    4.14    4.14</time>
   <time name="total">    4.24    4.24</time>
   <energy>
    <i name="e_fr_energy">    -69.15834680 </i>
    <i name="e_wo_entrp">    -69.15834680 </i>
    <i name="e_0_energy">    -69.15834680 </i>
   </energy>
  </scstep>
  <scstep>
   <time name="dav">    4.03    4.03</time>
   <time name="total">    4.12    4.12</time>
   <energy>
    <i name="e_fr_energy">    -67.30074273 </i>
    <i name="e_wo_entrp">    -67.30074273 </i>
    <i name="e_0_energy">    -67.30074273 </i>
   </energy>
  </scstep>
  <scstep>
   <time name="dav">    3.95    3.96</time>
   <time name="total">    4.05    4.05</time>
   <energy>
    <i name="e_fr_energy">    -67.26613391 </i>
    <i name="e_wo_entrp">    -67.26613391 </i>
    <i name="e_0_energy">    -67.26613391 </i>
   </energy>
  </scstep>
  <scstep>
   <time name="dav">    3.99    3.99</time>
   <time name="total">    4.08    4.08</time>
   <energy>
    <i name="e_fr_energy">    -67.23157635 </i>
    <i name="e_wo_entrp">    -67.23157635 </i>
    <i name="e_0_energy">    -67.23157635 </i>
   </energy>
  </scstep>
  <scstep>
   <time name="dav">    3.95    3.95</time>
   <time name="total">    4.05    4.05</time>
   <energy>
    <i name="e_fr_energy">    -67.21995340 </i>
    <i name="e_wo_entrp">    -67.21995340 </i>
    <i name="e_0_energy">    -67.21995340 </i>
   </energy>
  </scstep>
  <scstep>
   <time name="dav">    3.79    3.79</time>
   <time name="total">    3.89    3.89</time>
   <energy>
    <i name="e_fr_energy">    -67.22029003 </i>
    <i name="e_wo_entrp">    -67.22029003 </i>
    <i name="e_0_energy">    -67.22029003 </i>
   </energy>
  </scstep>
  <scstep>
   <time name="dav">    3.83    3.83</time>
   <time name="total">    3.92    3.92</time>
   <energy>
    <i name="e_fr_energy">    -67.22665279 </i>
    <i name="e_wo_entrp">    -67.22665279 </i>
    <i name="e_0_energy">    -67.22665279 </i>
   </energy>
  </scstep>
  <scstep>
   <time name="dav">    3.86    3.86</time>
   <time name="total">    3.96    3.96</time>
   <energy>
    <i name="e_fr_energy">    -67.22741516 </i>
    <i name="e_wo_entrp">    -67.22741516 </i>
    <i name="e_0_energy">    -67.22741516 </i>
   </energy>
  </scstep>
  <scstep>
   <time name="dav">    4.01    4.01</time>
   <time name="total">    4.11    4.11</time>
   <energy>
    <i name="e_fr_energy">    -67.22765514 </i>
    <i name="e_wo_entrp">    -67.22765514 </i>
    <i name="e_0_energy">    -67.22765514 </i>
   </energy>
  </scstep>
  <scstep>
   <time name="dav">    3.88    3.88</time>
   <time name="total">    3.97    3.97</time>
   <energy>
    <i name="e_fr_energy">    -67.22772008 </i>
    <i name="e_wo_entrp">    -67.22772008 </i>
    <i name="e_0_energy">    -67.22772008 </i>
   </energy>
  </scstep>
  <scstep>
   <time name="dav">    4.05    4.05</time>
   <time name="total">    4.15    4.15</time>
   <energy>
    <i name="e_fr_energy">    -67.22772629 </i>
    <i name="e_wo_entrp">    -67.22772629 </i>
    <i name="e_0_energy">    -67.22772629 </i>
   </energy>
  </scstep>
  <scstep>
   <time name="dav">    3.81    3.81</time>
   <time name="total">    3.90    3.90</time>
   <energy>
    <i name="e_fr_energy">    -67.22773001 </i>
    <i name="e_wo_entrp">    -67.22773001 </i>
    <i name="e_0_energy">    -67.22773001 </i>
   </energy>
  </scstep>
  <scstep>
   <time name="dav">    4.05    4.05</time>
   <time name="total">    4.14    4.14</time>
   <energy>
    <i name="e_fr_energy">    -67.22773020 </i>
    <i name="e_wo_entrp">    -67.22773020 </i>
    <i name="e_0_energy">    -67.22773020 </i>
   </energy>
  </scstep>
  <scstep>
   <time name="dav">    3.79    3.79</time>
   <time name="total">    3.88    3.88</time>
   <energy>
    <i name="e_fr_energy">    -67.22773023 </i>
    <i name="e_wo_entrp">    -67.22773023 </i>
    <i name="e_0_energy">    -67.22773023 </i>
   </energy>
  </scstep>
  <scstep>
   <time name="dav">    3.73    3.73</time>
   <time name="total">    3.82    3.82</time>
   <energy>
    <i name="e_fr_energy">    -67.22773025 </i>
    <i name="e_wo_entrp">    -67.22773025 </i>
    <i name="e_0_energy">    -67.22773025 </i>
   </energy>
  </scstep>
  <scstep>
   <time name="dav">    3.94    3.94</time>
   <time name="total">    3.98    3.98</time>
   <energy>
    <i name="alphaZ">     25.67921176 </i>
    <i name="ewald">    700.27145080 </i>
    <i name="hartreedc">  -1646.75291985 </i>
    <i name="XCdc">     96.02426162 </i>
    <i name="pawpsdc">   2894.38051419 </i>
    <i name="pawaedc">  -2896.90772551 </i>
    <i name="eentropy">     -0.00000000 </i>
    <i name="bandstr">   -265.12642278 </i>
    <i name="atom">   1025.20389953 </i>
    <i name="e_fr_energy">    -67.22773025 </i>
    <i name="e_wo_entrp">    -67.22773025 </i>
    <i name="e_0_energy">    -67.22773025 </i>
   </energy>
  </scstep>
  <structure>
   <crystal>
    <varray name="basis" >
     <v>       4.48084843       2.58701885       0.00000000 </v>
     <v>      -4.48084843       2.58701885       0.00000000 </v>
     <v>       0.00000000       0.00000000       8.52022140 </v>
    </varray>
    <i name="volume">    197.53348383 </i>
    <varray name="rec_basis" >
     <v>       0.11158601       0.19327265       0.00000000 </v>
     <v>      -0.11158601       0.19327265       0.00000000 </v>
     <v>       0.00000000       0.00000000       0.11736784 </v>
    </varray>
   </crystal>
   <varray name="positions" >
    <v>       0.33333300       0.66666600       0.25000000 </v>
    <v>       0.66666600       0.33333300       0.25000000 </v>
    <v>       0.15869124       0.31738348       0.25000000 </v>
    <v>       0.31738348       0.15869124       0.25000000 </v>
    <v>       0.15869124       0.84130776       0.25000000 </v>
    <v>       0.84130776       0.15869124       0.25000000 </v>
    <v>       0.68261552       0.84130776       0.25000000 </v>
    <v>       0.84130776       0.68261552       0.25000000 </v>
   </varray>
  </structure>
  <varray name="forces" >
   <v>       0.00000000       0.00000000      -0.00000000 </v>
   <v>       0.00000000       0.00000000      -0.00000000 </v>
   <v>      -0.00064712       0.00112085       0.00000000 </v>
   <v>       0.00064712       0.00112085       0.00000000 </v>
   <v>       0.00129425       0.00000000       0.00000000 </v>
   <v>      -0.00129425       0.00000000       0.00000000 </v>
   <v>      -0.00064712      -0.00112085      -0.00000000 </v>
   <v>       0.00064712      -0.00112085      -0.00000000 </v>
  </varray>
  <varray name="stress" >
   <v>      -0.53278977       0.00000000      -0.00000000 </v>
   <v>       0.00000000      -0.53278969      -0.00000000 </v>
   <v>       0.00000000       0.00000000      -1.27119703 </v>
  </varray>
  <energy>
   <i name="e_fr_energy">    -67.22773025 </i>
   <i name="e_wo_entrp">    -67.22773025 </i>
   <i name="e_0_energy">     -0.00000000 </i>
  </energy>
  <time name="totalsc">   70.80   71.85</time>
  <eigenvalues>
   <array>
    <dimension dim="1">band</dimension>
    <dimension dim="2">kpoint</dimension>
    <dimension dim="3">spin</dimension>
    <field>eigene</field>
    <field>occ</field>
    <set>
     <set comment="spin 1">
      <set comment="kpoint 1">
       <r>  -18.5403    1.0000 </r>
       <r>  -14.6488    1.0000 </r>
       <r>  -14.6488    1.0000 </r>
       <r>  -12.2992    1.0000 </r>
       <r>  -12.2992    1.0000 </r>
       <r>  -11.2307    1.0000 </r>
       <r>   -9.9135    1.0000 </r>
       <r>   -7.3452    1.0000 </r>
       <r>   -7.1249    1.0000 </r>
       <r>   -4.9710    1.0000 </r>
       <r>   -4.9710    1.0000 </r>
       <r>   -3.1493    1.0000 </r>
       <r>   -3.1492    1.0000 </r>
       <r>   -2.4667    1.0000 </r>
       <r>   -2.4666    1.0000 </r>
       <r>   -0.6315    0.0000 </r>
       <r>    1.1011    0.0000 </r>
       <r>    1.1012    0.0000 </r>
       <r>    1.7906    0.0000 </r>
       <r>    1.9217    0.0000 </r>
       <r>    4.5207    0.0000 </r>
       <r>    5.9129    0.0000 </r>
       <r>    6.3151    0.0000 </r>
       <r>    6.3151    0.0000 </r>
       <r>    7.6725    0.0000 </r>
       <r>    8.0796    0.0000 </r>
       <r>    8.0797    0.0000 </r>
       <r>    8.9954    0.0000 </r>
       <r>    9.1419    0.0000 </r>
       <r>    9.1419    0.0000 </r>
       <r>    9.2975    0.0000 </r>
       <r>    9.2975    0.0000 </r>
       <r>    9.5160    0.0000 </r>
       <r>   10.3273    0.0000 </r>
       <r>   10.6836    0.0000 </r>
       <r>   10.6836    0.0000 </r>
       <r>   11.3540    0.0000 </r>
       <r>   11.3541    0.0000 </r>
       <r>   11.3922    0.0000 </r>
       <r>   11.3994    0.0000 </r>
       <r>   11.9841    0.0000 </r>
       <r>   13.0008    0.0000 </r>
       <r>   13.0008    0.0000 </r>
       <r>   13.0285    0.0000 </r>
       <r>   13.1318    0.0000 </r>
       <r>   13.1318    0.0000 </r>
       <r>   13.1825    0.0000 </r>
       <r>   13.5278    0.0000 </r>
       <r>   15.6135    0.0000 </r>
       <r>   15.8008    0.0000 </r>
       <r>   15.8008    0.0000 </r>
       <r>   16.4913    0.0000 </r>
       <r>   18.2922    0.0000 </r>
       <r>   18.2922    0.0000 </r>
       <r>   18.8602    0.0000 </r>
       <r>   18.8602    0.0000 </r>
       <r>   19.1473    0.0000 </r>
       <r>   19.2290    0.0000 </r>
       <r>   19.5333    0.0000 </r>
       <r>   19.5333    0.0000 </r>
       <r>   19.7216    0.0000 </r>
       <r>   19.9888    0.0000 </r>
       <r>   19.9888    0.0000 </r>
       <r>   20.0167    0.0000 </r>
       <r>   20.4546    0.0000 </r>
       <r>   21.0814    0.0000 </r>
       <r>   21.3026    0.0000 </r>
       <r>   21.3026    0.0000 </r>
       <r>   22.8793    0.0000 </r>
       <r>   23.2968    0.0000 </r>
       <r>   23.2968    0.0000 </r>
       <r>   23.4397    0.0000 </r>
       <r>   23.4397    0.0000 </r>
       <r>   23.5738    0.0000 </r>
       <r>   24.0936    0.0000 </r>
       <r>   24.0936    0.0000 </r>
       <r>   24.4125    0.0000 </r>
       <r>   24.4125    0.0000 </r>
       <r>   24.5372    0.0000 </r>
       <r>   24.6373    0.0000 </r>
       <r>   24.8762    0.0000 </r>
       <r>   25.2174    0.0000 </r>
       <r>   25.2174    0.0000 </r>
       <r>   26.6515    0.0000 </r>
       <r>   26.6516    0.0000 </r>
       <r>   26.7538    0.0000 </r>
       <r>   26.7538    0.0000 </r>
       <r>   26.8463    0.0000 </r>
       <r>   27.0340    0.0000 </r>
       <r>   27.1216    0.0000 </r>
       <r>   27.7307    0.0000 </r>
       <r>   27.7307    0.0000 </r>
       <r>   27.7998    0.0000 </r>
       <r>   27.7998    0.0000 </r>
       <r>   27.8401    0.0000 </r>
       <r>   28.2967    0.0000 </r>
       <r>   28.2967    0.0000 </r>
       <r>   28.7936    0.0000 </r>
       <r>   28.7936    0.0000 </r>
       <r>   28.9523    0.0000 </r>
       <r>   29.6489    0.0000 </r>
       <r>   30.2897    0.0000 </r>
       <r>   31.1920    0.0000 </r>
       <r>   31.1920    0.0000 </r>
       <r>   31.4239    0.0000 </r>
       <r>   31.4816    0.0000 </r>
       <r>   31.4816    0.0000 </r>
       <r>   31.8841    0.0000 </r>
       <r>   32.0865    0.0000 </r>
       <r>   32.0865    0.0000 </r>
       <r>   32.4043    0.0000 </r>
       <r>   32.6844    0.0000 </r>
       <r>   33.2983    0.0000 </r>
       <r>   33.2983    0.0000 </r>
       <r>   33.3127    0.0000 </r>
       <r>   33.3127    0.0000 </r>
       <r>   33.4606    0.0000 </r>
       <r>   34.0099    0.0000 </r>
       <r>   34.9815    0.0000 </r>
       <r>   34.9815    0.0000 </r>
       <r>   35.0442    0.0000 </r>
       <r>   35.0442    0.0000 </r>
       <r>   35.2267    0.0000 </r>
       <r>   35.2267    0.0000 </r>
       <r>   35.8334    0.0000 </r>
       <r>   35.8655    0.0000 </r>
       <r>   35.8655    0.0000 </r>
       <r>   36.0453    0.0000 </r>
       <r>   36.6963    0.0000 </r>
       <r>   36.6963    0.0000 </r>
       <r>   37.0545    0.0000 </r>
       <r>   37.3076    0.0000 </r>
      </set>
      <set comment="kpoint 2">
       <r>  -18.5132    1.0000 </r>
       <r>  -14.7809    1.0000 </r>
       <r>  -14.6912    1.0000 </r>
       <r>  -12.3384    1.0000 </r>
       <r>  -12.2008    1.0000 </r>
       <r>  -11.0961    1.0000 </r>
       <r>   -9.7531    1.0000 </r>
       <r>   -7.3040    1.0000 </r>
       <r>   -7.1822    1.0000 </r>
       <r>   -5.0944    1.0000 </r>
       <r>   -4.9934    1.0000 </r>
       <r>   -3.2737    1.0000 </r>
       <r>   -3.1697    1.0000 </r>
       <r>   -2.6092    1.0000 </r>
       <r>   -2.5354    1.0000 </r>
       <r>   -0.8361    0.0000 </r>
       <r>    1.1605    0.0000 </r>
       <r>    1.4116    0.0000 </r>
       <r>    1.9153    0.0000 </r>
       <r>    1.9734    0.0000 </r>
       <r>    4.5728    0.0000 </r>
       <r>    5.9691    0.0000 </r>
       <r>    6.3866    0.0000 </r>
       <r>    6.4781    0.0000 </r>
       <r>    7.6627    0.0000 </r>
       <r>    8.0376    0.0000 </r>
       <r>    8.2336    0.0000 </r>
       <r>    8.2352    0.0000 </r>
       <r>    8.6808    0.0000 </r>
       <r>    8.7555    0.0000 </r>
       <r>    9.8480    0.0000 </r>
       <r>    9.8619    0.0000 </r>
       <r>    9.9124    0.0000 </r>
       <r>   10.3759    0.0000 </r>
       <r>   10.3995    0.0000 </r>
       <r>   10.4193    0.0000 </r>
       <r>   10.9077    0.0000 </r>
       <r>   11.4136    0.0000 </r>
       <r>   11.6687    0.0000 </r>
       <r>   12.0448    0.0000 </r>
       <r>   12.1516    0.0000 </r>
       <r>   12.3345    0.0000 </r>
       <r>   12.5608    0.0000 </r>
       <r>   12.8380    0.0000 </r>
       <r>   13.0972    0.0000 </r>
       <r>   13.6279    0.0000 </r>
       <r>   13.8001    0.0000 </r>
       <r>   14.2602    0.0000 </r>
       <r>   15.5623    0.0000 </r>
       <r>   15.6613    0.0000 </r>
       <r>   15.7181    0.0000 </r>
       <r>   16.2792    0.0000 </r>
       <r>   18.0211    0.0000 </r>
       <r>   18.0716    0.0000 </r>
       <r>   18.6452    0.0000 </r>
       <r>   18.9835    0.0000 </r>
       <r>   18.9928    0.0000 </r>
       <r>   19.3961    0.0000 </r>
       <r>   19.4430    0.0000 </r>
       <r>   19.8593    0.0000 </r>
       <r>   19.9227    0.0000 </r>
       <r>   19.9355    0.0000 </r>
       <r>   20.0222    0.0000 </r>
       <r>   20.0695    0.0000 </r>
       <r>   20.4468    0.0000 </r>
       <r>   20.9480    0.0000 </r>
       <r>   21.1305    0.0000 </r>
       <r>   21.1700    0.0000 </r>
       <r>   22.3005    0.0000 </r>
       <r>   22.5129    0.0000 </r>
       <r>   23.0923    0.0000 </r>
       <r>   23.5592    0.0000 </r>
       <r>   23.5743    0.0000 </r>
       <r>   23.6015    0.0000 </r>
       <r>   23.8165    0.0000 </r>
       <r>   24.0248    0.0000 </r>
       <r>   24.2674    0.0000 </r>
       <r>   24.5216    0.0000 </r>
       <r>   24.8306    0.0000 </r>
       <r>   24.9675    0.0000 </r>
       <r>   25.0475    0.0000 </r>
       <r>   25.5520    0.0000 </r>
       <r>   25.6964    0.0000 </r>
       <r>   25.7980    0.0000 </r>
       <r>   25.9189    0.0000 </r>
       <r>   26.1275    0.0000 </r>
       <r>   26.3972    0.0000 </r>
       <r>   26.9094    0.0000 </r>
       <r>   26.9234    0.0000 </r>
       <r>   27.0814    0.0000 </r>
       <r>   27.0849    0.0000 </r>
       <r>   27.5812    0.0000 </r>
       <r>   27.8918    0.0000 </r>
       <r>   28.1065    0.0000 </r>
       <r>   28.6632    0.0000 </r>
       <r>   28.9183    0.0000 </r>
       <r>   29.0466    0.0000 </r>
       <r>   29.1763    0.0000 </r>
       <r>   29.2646    0.0000 </r>
       <r>   29.6366    0.0000 </r>
       <r>   29.6477    0.0000 </r>
       <r>   30.1213    0.0000 </r>
       <r>   30.1818    0.0000 </r>
       <r>   30.7678    0.0000 </r>
       <r>   31.1259    0.0000 </r>
       <r>   31.8749    0.0000 </r>
       <r>   31.9107    0.0000 </r>
       <r>   32.0148    0.0000 </r>
       <r>   32.0886    0.0000 </r>
       <r>   32.5461    0.0000 </r>
       <r>   32.6542    0.0000 </r>
       <r>   32.9444    0.0000 </r>
       <r>   33.0816    0.0000 </r>
       <r>   33.3384    0.0000 </r>
       <r>   33.4640    0.0000 </r>
       <r>   33.5848    0.0000 </r>
       <r>   33.6087    0.0000 </r>
       <r>   33.8445    0.0000 </r>
       <r>   34.0074    0.0000 </r>
       <r>   34.0686    0.0000 </r>
       <r>   34.1281    0.0000 </r>
       <r>   34.2291    0.0000 </r>
       <r>   35.1281    0.0000 </r>
       <r>   35.9146    0.0000 </r>
       <r>   35.9610    0.0000 </r>
       <r>   35.9881    0.0000 </r>
       <r>   36.2333    0.0000 </r>
       <r>   36.3840    0.0000 </r>
       <r>   36.5942    0.0000 </r>
       <r>   36.7597    0.0000 </r>
       <r>   36.8649    0.0000 </r>
       <r>   37.0253    0.0000 </r>
      </set>
      <set comment="kpoint 3">
       <r>  -18.4341    1.0000 </r>
       <r>  -15.1059    1.0000 </r>
       <r>  -14.7954    1.0000 </r>
       <r>  -12.4549    1.0000 </r>
       <r>  -11.9317    1.0000 </r>
       <r>  -10.7149    1.0000 </r>
       <r>   -9.3237    1.0000 </r>
       <r>   -7.3645    1.0000 </r>
       <r>   -7.1816    1.0000 </r>
       <r>   -5.4404    1.0000 </r>
       <r>   -5.0296    1.0000 </r>
       <r>   -3.6157    1.0000 </r>
       <r>   -3.2240    1.0000 </r>
       <r>   -3.0165    1.0000 </r>
       <r>   -2.7272    1.0000 </r>
       <r>   -1.1839    0.0000 </r>
       <r>    1.3238    0.0000 </r>
       <r>    1.8881    0.0000 </r>
       <r>    2.1281    0.0000 </r>
       <r>    2.4358    0.0000 </r>
       <r>    4.7294    0.0000 </r>
       <r>    6.1239    0.0000 </r>
       <r>    6.5551    0.0000 </r>
       <r>    6.9440    0.0000 </r>
       <r>    6.9597    0.0000 </r>
       <r>    7.9146    0.0000 </r>
       <r>    8.1729    0.0000 </r>
       <r>    8.2020    0.0000 </r>
       <r>    8.5790    0.0000 </r>
       <r>    8.7436    0.0000 </r>
       <r>    9.0740    0.0000 </r>
       <r>    9.9077    0.0000 </r>
       <r>    9.9160    0.0000 </r>
       <r>   10.4672    0.0000 </r>
       <r>   10.5716    0.0000 </r>
       <r>   10.5788    0.0000 </r>
       <r>   10.9113    0.0000 </r>
       <r>   11.5894    0.0000 </r>
       <r>   11.8802    0.0000 </r>
       <r>   12.1077    0.0000 </r>
       <r>   12.1423    0.0000 </r>
       <r>   12.3419    0.0000 </r>
       <r>   12.6422    0.0000 </r>
       <r>   13.0075    0.0000 </r>
       <r>   13.4776    0.0000 </r>
       <r>   14.1695    0.0000 </r>
       <r>   14.3858    0.0000 </r>
       <r>   15.1545    0.0000 </r>
       <r>   15.2764    0.0000 </r>
       <r>   15.3889    0.0000 </r>
       <r>   15.7997    0.0000 </r>
       <r>   16.1743    0.0000 </r>
       <r>   17.3574    0.0000 </r>
       <r>   17.5941    0.0000 </r>
       <r>   17.8616    0.0000 </r>
       <r>   19.0273    0.0000 </r>
       <r>   19.0831    0.0000 </r>
       <r>   19.1612    0.0000 </r>
       <r>   19.5522    0.0000 </r>
       <r>   19.8344    0.0000 </r>
       <r>   19.9231    0.0000 </r>
       <r>   20.1859    0.0000 </r>
       <r>   20.2006    0.0000 </r>
       <r>   20.2953    0.0000 </r>
       <r>   20.4609    0.0000 </r>
       <r>   20.6854    0.0000 </r>
       <r>   20.9076    0.0000 </r>
       <r>   20.9177    0.0000 </r>
       <r>   20.9658    0.0000 </r>
       <r>   21.2974    0.0000 </r>
       <r>   23.1083    0.0000 </r>
       <r>   23.7417    0.0000 </r>
       <r>   23.7807    0.0000 </r>
       <r>   23.9368    0.0000 </r>
       <r>   24.0480    0.0000 </r>
       <r>   24.1155    0.0000 </r>
       <r>   24.2288    0.0000 </r>
       <r>   24.2479    0.0000 </r>
       <r>   24.4571    0.0000 </r>
       <r>   24.5114    0.0000 </r>
       <r>   24.6934    0.0000 </r>
       <r>   24.7126    0.0000 </r>
       <r>   25.1038    0.0000 </r>
       <r>   25.1717    0.0000 </r>
       <r>   25.2293    0.0000 </r>
       <r>   26.4775    0.0000 </r>
       <r>   26.6051    0.0000 </r>
       <r>   26.9337    0.0000 </r>
       <r>   27.0663    0.0000 </r>
       <r>   27.5561    0.0000 </r>
       <r>   27.7009    0.0000 </r>
       <r>   28.0595    0.0000 </r>
       <r>   28.1032    0.0000 </r>
       <r>   28.1117    0.0000 </r>
       <r>   28.1885    0.0000 </r>
       <r>   29.1207    0.0000 </r>
       <r>   29.1320    0.0000 </r>
       <r>   29.6998    0.0000 </r>
       <r>   29.7331    0.0000 </r>
       <r>   29.7997    0.0000 </r>
       <r>   30.2525    0.0000 </r>
       <r>   30.3510    0.0000 </r>
       <r>   30.5885    0.0000 </r>
       <r>   30.9581    0.0000 </r>
       <r>   30.9704    0.0000 </r>
       <r>   31.5020    0.0000 </r>
       <r>   31.7567    0.0000 </r>
       <r>   31.9397    0.0000 </r>
       <r>   32.6384    0.0000 </r>
       <r>   32.7569    0.0000 </r>
       <r>   32.8169    0.0000 </r>
       <r>   32.8396    0.0000 </r>
       <r>   32.9283    0.0000 </r>
       <r>   33.0868    0.0000 </r>
       <r>   33.1632    0.0000 </r>
       <r>   33.2361    0.0000 </r>
       <r>   33.7485    0.0000 </r>
       <r>   33.7648    0.0000 </r>
       <r>   33.9660    0.0000 </r>
       <r>   34.0185    0.0000 </r>
       <r>   34.2044    0.0000 </r>
       <r>   34.6046    0.0000 </r>
       <r>   34.9498    0.0000 </r>
       <r>   35.2437    0.0000 </r>
       <r>   35.4874    0.0000 </r>
       <r>   36.2302    0.0000 </r>
       <r>   36.5183    0.0000 </r>
       <r>   36.7573    0.0000 </r>
       <r>   36.8777    0.0000 </r>
       <r>   37.0315    0.0000 </r>
       <r>   37.0646    0.0000 </r>
       <r>   37.4346    0.0000 </r>
      </set>
      <set comment="kpoint 4">
       <r>  -18.3111    1.0000 </r>
       <r>  -15.5025    1.0000 </r>
       <r>  -14.9178    1.0000 </r>
       <r>  -12.6026    1.0000 </r>
       <r>  -11.5471    1.0000 </r>
       <r>  -10.1724    1.0000 </r>
       <r>   -8.7139    1.0000 </r>
       <r>   -7.6782    1.0000 </r>
       <r>   -6.9823    1.0000 </r>
       <r>   -5.9473    1.0000 </r>
       <r>   -5.0207    1.0000 </r>
       <r>   -4.0930    1.0000 </r>
       <r>   -3.6340    1.0000 </r>
       <r>   -3.2941    1.0000 </r>
       <r>   -3.0028    1.0000 </r>
       <r>   -1.4707    0.0000 </r>
       <r>    1.5522    0.0000 </r>
       <r>    2.2445    0.0000 </r>
       <r>    2.3849    0.0000 </r>
       <r>    3.3190    0.0000 </r>
       <r>    4.9927    0.0000 </r>
       <r>    6.0210    0.0000 </r>
       <r>    6.3583    0.0000 </r>
       <r>    6.7511    0.0000 </r>
       <r>    7.6029    0.0000 </r>
       <r>    7.8092    0.0000 </r>
       <r>    7.9266    0.0000 </r>
       <r>    8.1647    0.0000 </r>
       <r>    8.2206    0.0000 </r>
       <r>    8.9264    0.0000 </r>
       <r>    9.3180    0.0000 </r>
       <r>    9.4674    0.0000 </r>
       <r>    9.4698    0.0000 </r>
       <r>   10.1390    0.0000 </r>
       <r>   10.1768    0.0000 </r>
       <r>   11.1044    0.0000 </r>
       <r>   11.3401    0.0000 </r>
       <r>   11.7681    0.0000 </r>
       <r>   11.8214    0.0000 </r>
       <r>   12.3380    0.0000 </r>
       <r>   12.3959    0.0000 </r>
       <r>   12.5104    0.0000 </r>
       <r>   13.2333    0.0000 </r>
       <r>   13.2608    0.0000 </r>
       <r>   14.2225    0.0000 </r>
       <r>   14.4784    0.0000 </r>
       <r>   14.8590    0.0000 </r>
       <r>   15.0380    0.0000 </r>
       <r>   15.3045    0.0000 </r>
       <r>   16.0072    0.0000 </r>
       <r>   16.0963    0.0000 </r>
       <r>   16.2607    0.0000 </r>
       <r>   16.4635    0.0000 </r>
       <r>   17.1508    0.0000 </r>
       <r>   17.2038    0.0000 </r>
       <r>   18.7148    0.0000 </r>
       <r>   18.8973    0.0000 </r>
       <r>   18.9961    0.0000 </r>
       <r>   19.1637    0.0000 </r>
       <r>   19.3559    0.0000 </r>
       <r>   19.6341    0.0000 </r>
       <r>   19.6521    0.0000 </r>
       <r>   19.8567    0.0000 </r>
       <r>   20.1793    0.0000 </r>
       <r>   20.2805    0.0000 </r>
       <r>   20.6624    0.0000 </r>
       <r>   20.7056    0.0000 </r>
       <r>   21.0592    0.0000 </r>
       <r>   21.0780    0.0000 </r>
       <r>   21.4988    0.0000 </r>
       <r>   21.9505    0.0000 </r>
       <r>   22.9605    0.0000 </r>
       <r>   23.2358    0.0000 </r>
       <r>   23.2529    0.0000 </r>
       <r>   23.3291    0.0000 </r>
       <r>   23.5515    0.0000 </r>
       <r>   24.0815    0.0000 </r>
       <r>   24.5134    0.0000 </r>
       <r>   24.5438    0.0000 </r>
       <r>   24.5895    0.0000 </r>
       <r>   24.7054    0.0000 </r>
       <r>   25.0584    0.0000 </r>
       <r>   25.2805    0.0000 </r>
       <r>   25.5470    0.0000 </r>
       <r>   25.6479    0.0000 </r>
       <r>   25.6601    0.0000 </r>
       <r>   26.4057    0.0000 </r>
       <r>   26.7614    0.0000 </r>
       <r>   27.3091    0.0000 </r>
       <r>   28.0925    0.0000 </r>
       <r>   28.1525    0.0000 </r>
       <r>   28.1597    0.0000 </r>
       <r>   28.1715    0.0000 </r>
       <r>   28.3197    0.0000 </r>
       <r>   28.6563    0.0000 </r>
       <r>   28.6891    0.0000 </r>
       <r>   29.1922    0.0000 </r>
       <r>   29.5560    0.0000 </r>
       <r>   29.8650    0.0000 </r>
       <r>   29.9607    0.0000 </r>
       <r>   30.0805    0.0000 </r>
       <r>   30.1473    0.0000 </r>
       <r>   30.6552    0.0000 </r>
       <r>   30.9060    0.0000 </r>
       <r>   31.0702    0.0000 </r>
       <r>   31.7271    0.0000 </r>
       <r>   31.9407    0.0000 </r>
       <r>   31.9744    0.0000 </r>
       <r>   32.2557    0.0000 </r>
       <r>   32.4164    0.0000 </r>
       <r>   32.5241    0.0000 </r>
       <r>   32.5549    0.0000 </r>
       <r>   33.0528    0.0000 </r>
       <r>   33.4802    0.0000 </r>
       <r>   33.5835    0.0000 </r>
       <r>   33.8017    0.0000 </r>
       <r>   33.9560    0.0000 </r>
       <r>   34.1088    0.0000 </r>
       <r>   34.2691    0.0000 </r>
       <r>   34.6196    0.0000 </r>
       <r>   34.9734    0.0000 </r>
       <r>   35.1858    0.0000 </r>
       <r>   35.7166    0.0000 </r>
       <r>   35.7975    0.0000 </r>
       <r>   35.8135    0.0000 </r>
       <r>   36.4359    0.0000 </r>
       <r>   36.7285    0.0000 </r>
       <r>   36.8859    0.0000 </r>
       <r>   37.2446    0.0000 </r>
       <r>   37.2882    0.0000 </r>
       <r>   37.7698    0.0000 </r>
       <r>   37.8239    0.0000 </r>
      </set>
      <set comment="kpoint 5">
       <r>  -18.1625    1.0000 </r>
       <r>  -15.8797    1.0000 </r>
       <r>  -15.0239    1.0000 </r>
       <r>  -12.7316    1.0000 </r>
       <r>  -11.1092    1.0000 </r>
       <r>   -9.5491    1.0000 </r>
       <r>   -8.0852    1.0000 </r>
       <r>   -8.0108    1.0000 </r>
       <r>   -6.7177    1.0000 </r>
       <r>   -6.5247    1.0000 </r>
       <r>   -4.9417    1.0000 </r>
       <r>   -4.6103    1.0000 </r>
       <r>   -4.3954    1.0000 </r>
       <r>   -3.3602    1.0000 </r>
       <r>   -3.3072    1.0000 </r>
       <r>   -1.6689    0.0000 </r>
       <r>    1.7888    0.0000 </r>
       <r>    2.5685    0.0000 </r>
       <r>    2.7429    0.0000 </r>
       <r>    4.2903    0.0000 </r>
       <r>    5.1738    0.0000 </r>
       <r>    5.3723    0.0000 </r>
       <r>    6.6300    0.0000 </r>
       <r>    6.9218    0.0000 </r>
       <r>    7.4317    0.0000 </r>
       <r>    7.5747    0.0000 </r>
       <r>    7.6596    0.0000 </r>
       <r>    8.1261    0.0000 </r>
       <r>    8.5825    0.0000 </r>
       <r>    8.5992    0.0000 </r>
       <r>    9.1056    0.0000 </r>
       <r>    9.1460    0.0000 </r>
       <r>    9.8097    0.0000 </r>
       <r>    9.9117    0.0000 </r>
       <r>   10.3942    0.0000 </r>
       <r>   11.3233    0.0000 </r>
       <r>   11.5759    0.0000 </r>
       <r>   12.0495    0.0000 </r>
       <r>   12.1461    0.0000 </r>
       <r>   12.1731    0.0000 </r>
       <r>   12.2810    0.0000 </r>
       <r>   13.0014    0.0000 </r>
       <r>   13.5155    0.0000 </r>
       <r>   14.2023    0.0000 </r>
       <r>   14.2918    0.0000 </r>
       <r>   14.6098    0.0000 </r>
       <r>   14.9235    0.0000 </r>
       <r>   15.3296    0.0000 </r>
       <r>   15.4034    0.0000 </r>
       <r>   15.7518    0.0000 </r>
       <r>   16.3011    0.0000 </r>
       <r>   16.5796    0.0000 </r>
       <r>   16.6246    0.0000 </r>
       <r>   17.1348    0.0000 </r>
       <r>   17.2323    0.0000 </r>
       <r>   17.6843    0.0000 </r>
       <r>   17.8094    0.0000 </r>
       <r>   18.4659    0.0000 </r>
       <r>   18.6257    0.0000 </r>
       <r>   18.8087    0.0000 </r>
       <r>   19.7113    0.0000 </r>
       <r>   19.9249    0.0000 </r>
       <r>   20.0480    0.0000 </r>
       <r>   20.0842    0.0000 </r>
       <r>   20.2596    0.0000 </r>
       <r>   20.3208    0.0000 </r>
       <r>   20.6361    0.0000 </r>
       <r>   20.9062    0.0000 </r>
       <r>   21.0103    0.0000 </r>
       <r>   21.2642    0.0000 </r>
       <r>   21.6925    0.0000 </r>
       <r>   21.7278    0.0000 </r>
       <r>   22.1546    0.0000 </r>
       <r>   22.4047    0.0000 </r>
       <r>   23.2560    0.0000 </r>
       <r>   23.2649    0.0000 </r>
       <r>   23.8377    0.0000 </r>
       <r>   24.1045    0.0000 </r>
       <r>   24.1943    0.0000 </r>
       <r>   24.8458    0.0000 </r>
       <r>   24.8595    0.0000 </r>
       <r>   24.9236    0.0000 </r>
       <r>   25.7790    0.0000 </r>
       <r>   26.0006    0.0000 </r>
       <r>   26.7166    0.0000 </r>
       <r>   26.7677    0.0000 </r>
       <r>   26.8194    0.0000 </r>
       <r>   26.9807    0.0000 </r>
       <r>   27.2670    0.0000 </r>
       <r>   27.2936    0.0000 </r>
       <r>   27.3826    0.0000 </r>
       <r>   27.6980    0.0000 </r>
       <r>   28.1237    0.0000 </r>
       <r>   28.1329    0.0000 </r>
       <r>   28.5290    0.0000 </r>
       <r>   28.6794    0.0000 </r>
       <r>   29.2568    0.0000 </r>
       <r>   29.4999    0.0000 </r>
       <r>   29.8863    0.0000 </r>
       <r>   30.1177    0.0000 </r>
       <r>   30.2741    0.0000 </r>
       <r>   30.5256    0.0000 </r>
       <r>   30.8992    0.0000 </r>
       <r>   30.9636    0.0000 </r>
       <r>   31.0431    0.0000 </r>
       <r>   31.0750    0.0000 </r>
       <r>   31.7420    0.0000 </r>
       <r>   32.0779    0.0000 </r>
       <r>   32.1846    0.0000 </r>
       <r>   32.2945    0.0000 </r>
       <r>   32.4569    0.0000 </r>
       <r>   32.6304    0.0000 </r>
       <r>   33.0404    0.0000 </r>
       <r>   33.0521    0.0000 </r>
       <r>   33.9218    0.0000 </r>
       <r>   34.7892    0.0000 </r>
       <r>   34.8274    0.0000 </r>
       <r>   35.0880    0.0000 </r>
       <r>   35.2388    0.0000 </r>
       <r>   35.4682    0.0000 </r>
       <r>   35.5683    0.0000 </r>
       <r>   35.6783    0.0000 </r>
       <r>   36.0039    0.0000 </r>
       <r>   36.1773    0.0000 </r>
       <r>   36.7865    0.0000 </r>
       <r>   36.9575    0.0000 </r>
       <r>   37.0661    0.0000 </r>
       <r>   37.1216    0.0000 </r>
       <r>   37.7786    0.0000 </r>
       <r>   37.8099    0.0000 </r>
       <r>   38.0417    0.0000 </r>
       <r>   38.2040    0.0000 </r>
      </set>
      <set comment="kpoint 6">
       <r>  -18.0272    1.0000 </r>
       <r>  -16.1629    1.0000 </r>
       <r>  -15.0939    1.0000 </r>
       <r>  -12.8160    1.0000 </r>
       <r>  -10.7080    1.0000 </r>
       <r>   -8.9042    1.0000 </r>
       <r>   -8.4816    1.0000 </r>
       <r>   -7.5745    1.0000 </r>
       <r>   -6.7929    1.0000 </r>
       <r>   -6.4253    1.0000 </r>
       <r>   -5.2343    1.0000 </r>
       <r>   -5.0733    1.0000 </r>
       <r>   -4.8255    1.0000 </r>
       <r>   -3.5685    1.0000 </r>
       <r>   -3.4063    1.0000 </r>
       <r>   -1.7847    0.0000 </r>
       <r>    1.9692    0.0000 </r>
       <r>    2.8120    0.0000 </r>
       <r>    3.2016    0.0000 </r>
       <r>    4.4184    0.0000 </r>
       <r>    5.2007    0.0000 </r>
       <r>    5.8937    0.0000 </r>
       <r>    6.7443    0.0000 </r>
       <r>    6.7975    0.0000 </r>
       <r>    7.1990    0.0000 </r>
       <r>    7.4335    0.0000 </r>
       <r>    7.5840    0.0000 </r>
       <r>    7.7340    0.0000 </r>
       <r>    8.0166    0.0000 </r>
       <r>    8.6499    0.0000 </r>
       <r>    8.8572    0.0000 </r>
       <r>    9.5160    0.0000 </r>
       <r>    9.5495    0.0000 </r>
       <r>   10.6449    0.0000 </r>
       <r>   11.2326    0.0000 </r>
       <r>   11.2992    0.0000 </r>
       <r>   11.6977    0.0000 </r>
       <r>   11.9222    0.0000 </r>
       <r>   12.1340    0.0000 </r>
       <r>   12.1610    0.0000 </r>
       <r>   12.5332    0.0000 </r>
       <r>   13.4739    0.0000 </r>
       <r>   13.8226    0.0000 </r>
       <r>   13.9784    0.0000 </r>
       <r>   14.4402    0.0000 </r>
       <r>   14.5156    0.0000 </r>
       <r>   14.5333    0.0000 </r>
       <r>   14.8859    0.0000 </r>
       <r>   16.0731    0.0000 </r>
       <r>   16.2935    0.0000 </r>
       <r>   16.3614    0.0000 </r>
       <r>   16.4705    0.0000 </r>
       <r>   16.8056    0.0000 </r>
       <r>   17.2299    0.0000 </r>
       <r>   17.4944    0.0000 </r>
       <r>   17.5992    0.0000 </r>
       <r>   17.8535    0.0000 </r>
       <r>   18.0815    0.0000 </r>
       <r>   18.1854    0.0000 </r>
       <r>   18.3931    0.0000 </r>
       <r>   19.2319    0.0000 </r>
       <r>   19.3262    0.0000 </r>
       <r>   19.9117    0.0000 </r>
       <r>   20.0815    0.0000 </r>
       <r>   20.1586    0.0000 </r>
       <r>   20.3209    0.0000 </r>
       <r>   20.3606    0.0000 </r>
       <r>   20.5816    0.0000 </r>
       <r>   20.6691    0.0000 </r>
       <r>   21.2355    0.0000 </r>
       <r>   21.4671    0.0000 </r>
       <r>   21.5752    0.0000 </r>
       <r>   21.6759    0.0000 </r>
       <r>   21.7734    0.0000 </r>
       <r>   22.9441    0.0000 </r>
       <r>   23.6443    0.0000 </r>
       <r>   23.8382    0.0000 </r>
       <r>   23.8481    0.0000 </r>
       <r>   24.0304    0.0000 </r>
       <r>   24.4372    0.0000 </r>
       <r>   24.6008    0.0000 </r>
       <r>   25.2913    0.0000 </r>
       <r>   25.6793    0.0000 </r>
       <r>   26.4236    0.0000 </r>
       <r>   26.4270    0.0000 </r>
       <r>   26.4999    0.0000 </r>
       <r>   27.1312    0.0000 </r>
       <r>   27.3482    0.0000 </r>
       <r>   27.4076    0.0000 </r>
       <r>   27.4819    0.0000 </r>
       <r>   27.6466    0.0000 </r>
       <r>   27.9119    0.0000 </r>
       <r>   28.0444    0.0000 </r>
       <r>   28.0529    0.0000 </r>
       <r>   29.0204    0.0000 </r>
       <r>   29.1305    0.0000 </r>
       <r>   29.5580    0.0000 </r>
       <r>   29.6028    0.0000 </r>
       <r>   29.6517    0.0000 </r>
       <r>   29.8219    0.0000 </r>
       <r>   30.2209    0.0000 </r>
       <r>   30.2999    0.0000 </r>
       <r>   30.3297    0.0000 </r>
       <r>   30.6964    0.0000 </r>
       <r>   31.0137    0.0000 </r>
       <r>   31.2065    0.0000 </r>
       <r>   31.3579    0.0000 </r>
       <r>   31.6073    0.0000 </r>
       <r>   31.7101    0.0000 </r>
       <r>   32.2821    0.0000 </r>
       <r>   32.3508    0.0000 </r>
       <r>   33.6159    0.0000 </r>
       <r>   33.7224    0.0000 </r>
       <r>   34.1765    0.0000 </r>
       <r>   34.3867    0.0000 </r>
       <r>   34.5317    0.0000 </r>
       <r>   34.5825    0.0000 </r>
       <r>   34.6122    0.0000 </r>
       <r>   34.9067    0.0000 </r>
       <r>   35.2682    0.0000 </r>
       <r>   35.5430    0.0000 </r>
       <r>   36.3324    0.0000 </r>
       <r>   37.4780    0.0000 </r>
       <r>   37.5085    0.0000 </r>
       <r>   37.6507    0.0000 </r>
       <r>   37.6847    0.0000 </r>
       <r>   37.7428    0.0000 </r>
       <r>   37.8106    0.0000 </r>
       <r>   37.9395    0.0000 </r>
       <r>   38.4678    0.0000 </r>
       <r>   38.4988    0.0000 </r>
       <r>   38.7102    0.0000 </r>
      </set>
      <set comment="kpoint 7">
       <r>  -17.9687    1.0000 </r>
       <r>  -16.2722    1.0000 </r>
       <r>  -15.1182    1.0000 </r>
       <r>  -12.8452    1.0000 </r>
       <r>  -10.5233    1.0000 </r>
       <r>   -8.6674    1.0000 </r>
       <r>   -8.4603    1.0000 </r>
       <r>   -7.8540    1.0000 </r>
       <r>   -6.2579    1.0000 </r>
       <r>   -6.2284    1.0000 </r>
       <r>   -5.9752    1.0000 </r>
       <r>   -5.3004    1.0000 </r>
       <r>   -4.7629    1.0000 </r>
       <r>   -3.6806    1.0000 </r>
       <r>   -3.4227    1.0000 </r>
       <r>   -1.8229    0.0000 </r>
       <r>    2.0369    0.0000 </r>
       <r>    2.9042    0.0000 </r>
       <r>    3.7591    0.0000 </r>
       <r>    3.7616    0.0000 </r>
       <r>    5.8295    0.0000 </r>
       <r>    6.0178    0.0000 </r>
       <r>    6.6833    0.0000 </r>
       <r>    6.8324    0.0000 </r>
       <r>    7.0070    0.0000 </r>
       <r>    7.3848    0.0000 </r>
       <r>    7.5017    0.0000 </r>
       <r>    7.5243    0.0000 </r>
       <r>    7.8616    0.0000 </r>
       <r>    8.4188    0.0000 </r>
       <r>    8.7679    0.0000 </r>
       <r>    9.4538    0.0000 </r>
       <r>   10.0363    0.0000 </r>
       <r>   11.0875    0.0000 </r>
       <r>   11.2965    0.0000 </r>
       <r>   11.3093    0.0000 </r>
       <r>   11.8230    0.0000 </r>
       <r>   11.8675    0.0000 </r>
       <r>   12.0688    0.0000 </r>
       <r>   12.5004    0.0000 </r>
       <r>   12.7063    0.0000 </r>
       <r>   12.8630    0.0000 </r>
       <r>   13.6413    0.0000 </r>
       <r>   14.0529    0.0000 </r>
       <r>   14.3493    0.0000 </r>
       <r>   14.6915    0.0000 </r>
       <r>   15.0594    0.0000 </r>
       <r>   15.2109    0.0000 </r>
       <r>   15.3651    0.0000 </r>
       <r>   15.3663    0.0000 </r>
       <r>   16.6211    0.0000 </r>
       <r>   16.9789    0.0000 </r>
       <r>   17.1613    0.0000 </r>
       <r>   17.3312    0.0000 </r>
       <r>   17.3605    0.0000 </r>
       <r>   17.7409    0.0000 </r>
       <r>   18.2136    0.0000 </r>
       <r>   18.3643    0.0000 </r>
       <r>   18.5834    0.0000 </r>
       <r>   18.6120    0.0000 </r>
       <r>   18.8323    0.0000 </r>
       <r>   18.9763    0.0000 </r>
       <r>   19.1428    0.0000 </r>
       <r>   19.3566    0.0000 </r>
       <r>   19.9079    0.0000 </r>
       <r>   19.9568    0.0000 </r>
       <r>   20.0143    0.0000 </r>
       <r>   20.1818    0.0000 </r>
       <r>   20.9535    0.0000 </r>
       <r>   21.1326    0.0000 </r>
       <r>   21.6406    0.0000 </r>
       <r>   21.7580    0.0000 </r>
       <r>   22.4412    0.0000 </r>
       <r>   22.5453    0.0000 </r>
       <r>   22.5761    0.0000 </r>
       <r>   22.6511    0.0000 </r>
       <r>   23.6179    0.0000 </r>
       <r>   23.8592    0.0000 </r>
       <r>   23.9896    0.0000 </r>
       <r>   24.0510    0.0000 </r>
       <r>   24.6837    0.0000 </r>
       <r>   25.4785    0.0000 </r>
       <r>   25.8082    0.0000 </r>
       <r>   25.8778    0.0000 </r>
       <r>   26.7758    0.0000 </r>
       <r>   26.8047    0.0000 </r>
       <r>   26.8170    0.0000 </r>
       <r>   27.1894    0.0000 </r>
       <r>   27.4249    0.0000 </r>
       <r>   27.4830    0.0000 </r>
       <r>   27.9756    0.0000 </r>
       <r>   28.0416    0.0000 </r>
       <r>   28.0484    0.0000 </r>
       <r>   28.8467    0.0000 </r>
       <r>   28.9852    0.0000 </r>
       <r>   29.0125    0.0000 </r>
       <r>   29.5492    0.0000 </r>
       <r>   29.6296    0.0000 </r>
       <r>   29.6771    0.0000 </r>
       <r>   29.7181    0.0000 </r>
       <r>   30.3493    0.0000 </r>
       <r>   30.4480    0.0000 </r>
       <r>   30.5397    0.0000 </r>
       <r>   30.6617    0.0000 </r>
       <r>   30.7937    0.0000 </r>
       <r>   30.9544    0.0000 </r>
       <r>   31.3316    0.0000 </r>
       <r>   31.3867    0.0000 </r>
       <r>   32.0574    0.0000 </r>
       <r>   32.1985    0.0000 </r>
       <r>   32.6911    0.0000 </r>
       <r>   32.7768    0.0000 </r>
       <r>   32.9954    0.0000 </r>
       <r>   33.2954    0.0000 </r>
       <r>   34.1025    0.0000 </r>
       <r>   34.3971    0.0000 </r>
       <r>   35.2177    0.0000 </r>
       <r>   35.3890    0.0000 </r>
       <r>   36.0993    0.0000 </r>
       <r>   36.2765    0.0000 </r>
       <r>   36.2958    0.0000 </r>
       <r>   36.4642    0.0000 </r>
       <r>   36.7282    0.0000 </r>
       <r>   37.0847    0.0000 </r>
       <r>   37.5440    0.0000 </r>
       <r>   37.6053    0.0000 </r>
       <r>   37.8529    0.0000 </r>
       <r>   38.1463    0.0000 </r>
       <r>   38.1501    0.0000 </r>
       <r>   38.7016    0.0000 </r>
       <r>   38.7568    0.0000 </r>
       <r>   39.0516    0.0000 </r>
      </set>
      <set comment="kpoint 8">
       <r>  -18.4601    1.0000 </r>
       <r>  -14.9943    1.0000 </r>
       <r>  -14.7809    1.0000 </r>
       <r>  -12.3670    1.0000 </r>
       <r>  -12.0744    1.0000 </r>
       <r>  -10.8255    1.0000 </r>
       <r>   -9.4616    1.0000 </r>
       <r>   -7.3045    1.0000 </r>
       <r>   -7.2222    1.0000 </r>
       <r>   -5.3045    1.0000 </r>
       <r>   -5.0454    1.0000 </r>
       <r>   -3.4865    1.0000 </r>
       <r>   -3.2340    1.0000 </r>
       <r>   -2.8750    1.0000 </r>
       <r>   -2.6748    1.0000 </r>
       <r>   -1.0765    0.0000 </r>
       <r>    1.1928    0.0000 </r>
       <r>    1.9201    0.0000 </r>
       <r>    2.0766    0.0000 </r>
       <r>    2.1721    0.0000 </r>
       <r>    4.6771    0.0000 </r>
       <r>    6.0776    0.0000 </r>
       <r>    6.5380    0.0000 </r>
       <r>    6.7516    0.0000 </r>
       <r>    7.3986    0.0000 </r>
       <r>    7.5581    0.0000 </r>
       <r>    8.0759    0.0000 </r>
       <r>    8.3552    0.0000 </r>
       <r>    8.5474    0.0000 </r>
       <r>    9.2291    0.0000 </r>
       <r>    9.4118    0.0000 </r>
       <r>    9.5260    0.0000 </r>
       <r>    9.6858    0.0000 </r>
       <r>   10.2460    0.0000 </r>
       <r>   10.7998    0.0000 </r>
       <r>   10.8126    0.0000 </r>
       <r>   11.1324    0.0000 </r>
       <r>   11.4091    0.0000 </r>
       <r>   11.5924    0.0000 </r>
       <r>   11.7043    0.0000 </r>
       <r>   12.1662    0.0000 </r>
       <r>   12.7034    0.0000 </r>
       <r>   12.7084    0.0000 </r>
       <r>   13.2663    0.0000 </r>
       <r>   13.2707    0.0000 </r>
       <r>   13.3115    0.0000 </r>
       <r>   14.6751    0.0000 </r>
       <r>   14.8539    0.0000 </r>
       <r>   15.0942    0.0000 </r>
       <r>   15.7535    0.0000 </r>
       <r>   15.7542    0.0000 </r>
       <r>   16.0620    0.0000 </r>
       <r>   17.5711    0.0000 </r>
       <r>   17.7323    0.0000 </r>
       <r>   18.0866    0.0000 </r>
       <r>   18.7975    0.0000 </r>
       <r>   19.2809    0.0000 </r>
       <r>   19.3447    0.0000 </r>
       <r>   19.6799    0.0000 </r>
       <r>   19.7002    0.0000 </r>
       <r>   19.7886    0.0000 </r>
       <r>   19.9488    0.0000 </r>
       <r>   20.3937    0.0000 </r>
       <r>   20.4966    0.0000 </r>
       <r>   20.5031    0.0000 </r>
       <r>   20.6163    0.0000 </r>
       <r>   20.7881    0.0000 </r>
       <r>   20.9392    0.0000 </r>
       <r>   21.1718    0.0000 </r>
       <r>   22.5187    0.0000 </r>
       <r>   22.5238    0.0000 </r>
       <r>   23.2618    0.0000 </r>
       <r>   23.6610    0.0000 </r>
       <r>   23.8736    0.0000 </r>
       <r>   23.9585    0.0000 </r>
       <r>   24.0196    0.0000 </r>
       <r>   24.1366    0.0000 </r>
       <r>   24.4987    0.0000 </r>
       <r>   24.5861    0.0000 </r>
       <r>   24.5923    0.0000 </r>
       <r>   24.9850    0.0000 </r>
       <r>   24.9983    0.0000 </r>
       <r>   25.7623    0.0000 </r>
       <r>   25.8278    0.0000 </r>
       <r>   25.9447    0.0000 </r>
       <r>   26.0228    0.0000 </r>
       <r>   26.2519    0.0000 </r>
       <r>   26.4644    0.0000 </r>
       <r>   26.6504    0.0000 </r>
       <r>   27.2927    0.0000 </r>
       <r>   27.3911    0.0000 </r>
       <r>   28.0323    0.0000 </r>
       <r>   28.0424    0.0000 </r>
       <r>   28.1296    0.0000 </r>
       <r>   28.3527    0.0000 </r>
       <r>   28.9976    0.0000 </r>
       <r>   29.1798    0.0000 </r>
       <r>   29.5464    0.0000 </r>
       <r>   29.6700    0.0000 </r>
       <r>   29.8666    0.0000 </r>
       <r>   30.1911    0.0000 </r>
       <r>   30.4004    0.0000 </r>
       <r>   31.0275    0.0000 </r>
       <r>   31.2332    0.0000 </r>
       <r>   31.4941    0.0000 </r>
       <r>   31.6245    0.0000 </r>
       <r>   31.6318    0.0000 </r>
       <r>   31.8743    0.0000 </r>
       <r>   32.0654    0.0000 </r>
       <r>   32.2723    0.0000 </r>
       <r>   32.4689    0.0000 </r>
       <r>   32.5776    0.0000 </r>
       <r>   32.7464    0.0000 </r>
       <r>   32.7535    0.0000 </r>
       <r>   32.7708    0.0000 </r>
       <r>   33.4091    0.0000 </r>
       <r>   33.6079    0.0000 </r>
       <r>   33.9290    0.0000 </r>
       <r>   34.0033    0.0000 </r>
       <r>   34.8529    0.0000 </r>
       <r>   35.0592    0.0000 </r>
       <r>   35.1431    0.0000 </r>
       <r>   35.3567    0.0000 </r>
       <r>   35.4891    0.0000 </r>
       <r>   35.5771    0.0000 </r>
       <r>   35.6795    0.0000 </r>
       <r>   35.7196    0.0000 </r>
       <r>   36.2097    0.0000 </r>
       <r>   36.4418    0.0000 </r>
       <r>   36.4685    0.0000 </r>
       <r>   36.8738    0.0000 </r>
       <r>   37.0588    0.0000 </r>
      </set>
      <set comment="kpoint 9">
       <r>  -18.3587    1.0000 </r>
       <r>  -15.3297    1.0000 </r>
       <r>  -14.9244    1.0000 </r>
       <r>  -12.4374    1.0000 </r>
       <r>  -11.8221    1.0000 </r>
       <r>  -10.3336    1.0000 </r>
       <r>   -8.9537    1.0000 </r>
       <r>   -7.5669    1.0000 </r>
       <r>   -7.0611    1.0000 </r>
       <r>   -5.6745    1.0000 </r>
       <r>   -5.1027    1.0000 </r>
       <r>   -3.8636    1.0000 </r>
       <r>   -3.3655    1.0000 </r>
       <r>   -3.3565    1.0000 </r>
       <r>   -2.9300    1.0000 </r>
       <r>   -1.3035    0.0000 </r>
       <r>    1.2600    0.0000 </r>
       <r>    2.2824    0.0000 </r>
       <r>    2.4279    0.0000 </r>
       <r>    2.8510    0.0000 </r>
       <r>    4.8861    0.0000 </r>
       <r>    6.2808    0.0000 </r>
       <r>    6.5077    0.0000 </r>
       <r>    6.7723    0.0000 </r>
       <r>    7.1502    0.0000 </r>
       <r>    7.2481    0.0000 </r>
       <r>    8.2401    0.0000 </r>
       <r>    8.6339    0.0000 </r>
       <r>    8.6392    0.0000 </r>
       <r>    9.0266    0.0000 </r>
       <r>    9.0745    0.0000 </r>
       <r>    9.1530    0.0000 </r>
       <r>    9.7711    0.0000 </r>
       <r>   10.1428    0.0000 </r>
       <r>   10.4882    0.0000 </r>
       <r>   10.5456    0.0000 </r>
       <r>   11.0698    0.0000 </r>
       <r>   11.7230    0.0000 </r>
       <r>   11.9530    0.0000 </r>
       <r>   12.1359    0.0000 </r>
       <r>   12.5589    0.0000 </r>
       <r>   12.9163    0.0000 </r>
       <r>   13.0498    0.0000 </r>
       <r>   13.1819    0.0000 </r>
       <r>   13.7879    0.0000 </r>
       <r>   13.8784    0.0000 </r>
       <r>   14.6673    0.0000 </r>
       <r>   15.0635    0.0000 </r>
       <r>   15.6424    0.0000 </r>
       <r>   15.7272    0.0000 </r>
       <r>   15.9300    0.0000 </r>
       <r>   16.1285    0.0000 </r>
       <r>   16.9985    0.0000 </r>
       <r>   17.2342    0.0000 </r>
       <r>   17.4622    0.0000 </r>
       <r>   18.5950    0.0000 </r>
       <r>   18.8063    0.0000 </r>
       <r>   19.1417    0.0000 </r>
       <r>   19.3697    0.0000 </r>
       <r>   19.5440    0.0000 </r>
       <r>   19.7248    0.0000 </r>
       <r>   19.8257    0.0000 </r>
       <r>   20.1113    0.0000 </r>
       <r>   20.3707    0.0000 </r>
       <r>   20.4668    0.0000 </r>
       <r>   20.6286    0.0000 </r>
       <r>   20.9226    0.0000 </r>
       <r>   21.0739    0.0000 </r>
       <r>   21.1664    0.0000 </r>
       <r>   21.4502    0.0000 </r>
       <r>   22.1496    0.0000 </r>
       <r>   22.6793    0.0000 </r>
       <r>   23.1242    0.0000 </r>
       <r>   23.2068    0.0000 </r>
       <r>   23.8068    0.0000 </r>
       <r>   24.0762    0.0000 </r>
       <r>   24.0992    0.0000 </r>
       <r>   24.3010    0.0000 </r>
       <r>   24.5136    0.0000 </r>
       <r>   25.0531    0.0000 </r>
       <r>   25.1449    0.0000 </r>
       <r>   25.1928    0.0000 </r>
       <r>   25.2353    0.0000 </r>
       <r>   25.3105    0.0000 </r>
       <r>   25.8855    0.0000 </r>
       <r>   26.0007    0.0000 </r>
       <r>   26.1849    0.0000 </r>
       <r>   26.2052    0.0000 </r>
       <r>   26.9497    0.0000 </r>
       <r>   27.0710    0.0000 </r>
       <r>   27.4627    0.0000 </r>
       <r>   28.0074    0.0000 </r>
       <r>   28.0409    0.0000 </r>
       <r>   28.2909    0.0000 </r>
       <r>   29.2070    0.0000 </r>
       <r>   29.4427    0.0000 </r>
       <r>   29.8030    0.0000 </r>
       <r>   29.8838    0.0000 </r>
       <r>   29.9484    0.0000 </r>
       <r>   30.0936    0.0000 </r>
       <r>   30.3367    0.0000 </r>
       <r>   30.5370    0.0000 </r>
       <r>   30.5824    0.0000 </r>
       <r>   30.7176    0.0000 </r>
       <r>   31.1731    0.0000 </r>
       <r>   31.3766    0.0000 </r>
       <r>   31.4251    0.0000 </r>
       <r>   31.5442    0.0000 </r>
       <r>   31.8706    0.0000 </r>
       <r>   32.0761    0.0000 </r>
       <r>   32.6805    0.0000 </r>
       <r>   32.9547    0.0000 </r>
       <r>   33.2241    0.0000 </r>
       <r>   33.3846    0.0000 </r>
       <r>   33.6857    0.0000 </r>
       <r>   33.6994    0.0000 </r>
       <r>   34.0043    0.0000 </r>
       <r>   34.1939    0.0000 </r>
       <r>   34.1998    0.0000 </r>
       <r>   34.4796    0.0000 </r>
       <r>   34.6263    0.0000 </r>
       <r>   34.7628    0.0000 </r>
       <r>   35.4214    0.0000 </r>
       <r>   35.5938    0.0000 </r>
       <r>   35.9987    0.0000 </r>
       <r>   36.4370    0.0000 </r>
       <r>   36.4707    0.0000 </r>
       <r>   36.8240    0.0000 </r>
       <r>   37.0181    0.0000 </r>
       <r>   37.0840    0.0000 </r>
       <r>   37.0853    0.0000 </r>
       <r>   37.3143    0.0000 </r>
      </set>
      <set comment="kpoint 10">
       <r>  -18.2216    1.0000 </r>
       <r>  -15.7004    1.0000 </r>
       <r>  -15.0616    1.0000 </r>
       <r>  -12.5469    1.0000 </r>
       <r>  -11.4382    1.0000 </r>
       <r>   -9.7295    1.0000 </r>
       <r>   -8.3073    1.0000 </r>
       <r>   -7.9559    1.0000 </r>
       <r>   -6.8281    1.0000 </r>
       <r>   -6.1688    1.0000 </r>
       <r>   -5.0887    1.0000 </r>
       <r>   -4.3446    1.0000 </r>
       <r>   -4.0291    1.0000 </r>
       <r>   -3.4802    1.0000 </r>
       <r>   -3.2435    1.0000 </r>
       <r>   -1.4533    0.0000 </r>
       <r>    1.3910    0.0000 </r>
       <r>    2.5899    0.0000 </r>
       <r>    2.8067    0.0000 </r>
       <r>    3.7951    0.0000 </r>
       <r>    5.2029    0.0000 </r>
       <r>    5.6251    0.0000 </r>
       <r>    6.5570    0.0000 </r>
       <r>    6.7674    0.0000 </r>
       <r>    7.0737    0.0000 </r>
       <r>    7.8279    0.0000 </r>
       <r>    7.9147    0.0000 </r>
       <r>    8.3378    0.0000 </r>
       <r>    8.6659    0.0000 </r>
       <r>    8.6990    0.0000 </r>
       <r>    9.1704    0.0000 </r>
       <r>    9.2839    0.0000 </r>
       <r>    9.7390    0.0000 </r>
       <r>    9.9807    0.0000 </r>
       <r>   10.0715    0.0000 </r>
       <r>   10.8298    0.0000 </r>
       <r>   11.0000    0.0000 </r>
       <r>   12.0982    0.0000 </r>
       <r>   12.1244    0.0000 </r>
       <r>   12.5785    0.0000 </r>
       <r>   12.8305    0.0000 </r>
       <r>   12.9172    0.0000 </r>
       <r>   13.4026    0.0000 </r>
       <r>   13.7595    0.0000 </r>
       <r>   14.2719    0.0000 </r>
       <r>   14.3241    0.0000 </r>
       <r>   14.7098    0.0000 </r>
       <r>   14.9550    0.0000 </r>
       <r>   15.6340    0.0000 </r>
       <r>   15.9762    0.0000 </r>
       <r>   16.1911    0.0000 </r>
       <r>   16.4212    0.0000 </r>
       <r>   16.6714    0.0000 </r>
       <r>   17.0105    0.0000 </r>
       <r>   17.3281    0.0000 </r>
       <r>   17.5761    0.0000 </r>
       <r>   18.4350    0.0000 </r>
       <r>   18.8088    0.0000 </r>
       <r>   19.0964    0.0000 </r>
       <r>   19.1508    0.0000 </r>
       <r>   19.2616    0.0000 </r>
       <r>   19.6153    0.0000 </r>
       <r>   19.8876    0.0000 </r>
       <r>   20.0871    0.0000 </r>
       <r>   20.3315    0.0000 </r>
       <r>   20.5944    0.0000 </r>
       <r>   20.7302    0.0000 </r>
       <r>   21.0003    0.0000 </r>
       <r>   21.4442    0.0000 </r>
       <r>   21.4587    0.0000 </r>
       <r>   21.6178    0.0000 </r>
       <r>   21.9149    0.0000 </r>
       <r>   22.9283    0.0000 </r>
       <r>   23.0030    0.0000 </r>
       <r>   23.0617    0.0000 </r>
       <r>   23.2729    0.0000 </r>
       <r>   23.8341    0.0000 </r>
       <r>   23.9858    0.0000 </r>
       <r>   24.2188    0.0000 </r>
       <r>   24.8136    0.0000 </r>
       <r>   24.9995    0.0000 </r>
       <r>   25.3471    0.0000 </r>
       <r>   25.4475    0.0000 </r>
       <r>   25.9644    0.0000 </r>
       <r>   26.0705    0.0000 </r>
       <r>   26.2872    0.0000 </r>
       <r>   26.3950    0.0000 </r>
       <r>   26.5087    0.0000 </r>
       <r>   26.7823    0.0000 </r>
       <r>   27.4708    0.0000 </r>
       <r>   27.6918    0.0000 </r>
       <r>   27.7768    0.0000 </r>
       <r>   27.9579    0.0000 </r>
       <r>   28.0357    0.0000 </r>
       <r>   29.0970    0.0000 </r>
       <r>   29.3464    0.0000 </r>
       <r>   29.5750    0.0000 </r>
       <r>   29.6011    0.0000 </r>
       <r>   30.0640    0.0000 </r>
       <r>   30.2050    0.0000 </r>
       <r>   30.4179    0.0000 </r>
       <r>   30.5462    0.0000 </r>
       <r>   30.6772    0.0000 </r>
       <r>   30.6903    0.0000 </r>
       <r>   30.7366    0.0000 </r>
       <r>   31.1040    0.0000 </r>
       <r>   31.5558    0.0000 </r>
       <r>   31.8641    0.0000 </r>
       <r>   32.3832    0.0000 </r>
       <r>   32.4309    0.0000 </r>
       <r>   32.5010    0.0000 </r>
       <r>   33.4662    0.0000 </r>
       <r>   33.6059    0.0000 </r>
       <r>   33.8069    0.0000 </r>
       <r>   33.8413    0.0000 </r>
       <r>   34.0284    0.0000 </r>
       <r>   34.1085    0.0000 </r>
       <r>   34.5738    0.0000 </r>
       <r>   34.7737    0.0000 </r>
       <r>   34.9160    0.0000 </r>
       <r>   35.2013    0.0000 </r>
       <r>   35.8392    0.0000 </r>
       <r>   35.8492    0.0000 </r>
       <r>   36.3831    0.0000 </r>
       <r>   36.4473    0.0000 </r>
       <r>   36.6841    0.0000 </r>
       <r>   36.7962    0.0000 </r>
       <r>   36.8911    0.0000 </r>
       <r>   37.1269    0.0000 </r>
       <r>   37.5534    0.0000 </r>
       <r>   37.6417    0.0000 </r>
       <r>   37.6693    0.0000 </r>
      </set>
      <set comment="kpoint 11">
       <r>  -18.0756    1.0000 </r>
       <r>  -16.0252    1.0000 </r>
       <r>  -15.1634    1.0000 </r>
       <r>  -12.6404    1.0000 </r>
       <r>  -11.0116    1.0000 </r>
       <r>   -9.0961    1.0000 </r>
       <r>   -8.3956    1.0000 </r>
       <r>   -7.6307    1.0000 </r>
       <r>   -6.6685    1.0000 </r>
       <r>   -6.5435    1.0000 </r>
       <r>   -5.0399    1.0000 </r>
       <r>   -4.8339    1.0000 </r>
       <r>   -4.7659    1.0000 </r>
       <r>   -3.5742    1.0000 </r>
       <r>   -3.5495    1.0000 </r>
       <r>   -1.5440    0.0000 </r>
       <r>    1.5375    0.0000 </r>
       <r>    2.9983    0.0000 </r>
       <r>    3.1243    0.0000 </r>
       <r>    4.7554    0.0000 </r>
       <r>    4.8226    0.0000 </r>
       <r>    5.6422    0.0000 </r>
       <r>    6.5803    0.0000 </r>
       <r>    6.9202    0.0000 </r>
       <r>    7.0832    0.0000 </r>
       <r>    7.1992    0.0000 </r>
       <r>    8.0687    0.0000 </r>
       <r>    8.1881    0.0000 </r>
       <r>    8.4264    0.0000 </r>
       <r>    8.7179    0.0000 </r>
       <r>    8.8474    0.0000 </r>
       <r>    9.0897    0.0000 </r>
       <r>    9.7103    0.0000 </r>
       <r>   10.2320    0.0000 </r>
       <r>   10.6019    0.0000 </r>
       <r>   11.0089    0.0000 </r>
       <r>   11.6887    0.0000 </r>
       <r>   12.0284    0.0000 </r>
       <r>   12.1822    0.0000 </r>
       <r>   12.5784    0.0000 </r>
       <r>   12.6707    0.0000 </r>
       <r>   13.2500    0.0000 </r>
       <r>   13.6798    0.0000 </r>
       <r>   14.0947    0.0000 </r>
       <r>   14.3039    0.0000 </r>
       <r>   14.4920    0.0000 </r>
       <r>   14.8849    0.0000 </r>
       <r>   15.2102    0.0000 </r>
       <r>   15.2365    0.0000 </r>
       <r>   16.1354    0.0000 </r>
       <r>   16.5527    0.0000 </r>
       <r>   16.5876    0.0000 </r>
       <r>   16.8810    0.0000 </r>
       <r>   17.0073    0.0000 </r>
       <r>   17.0821    0.0000 </r>
       <r>   17.7142    0.0000 </r>
       <r>   18.0642    0.0000 </r>
       <r>   18.2105    0.0000 </r>
       <r>   18.3640    0.0000 </r>
       <r>   18.4602    0.0000 </r>
       <r>   19.3008    0.0000 </r>
       <r>   19.5575    0.0000 </r>
       <r>   19.6724    0.0000 </r>
       <r>   19.7642    0.0000 </r>
       <r>   20.2203    0.0000 </r>
       <r>   20.3520    0.0000 </r>
       <r>   20.6518    0.0000 </r>
       <r>   20.8933    0.0000 </r>
       <r>   20.9732    0.0000 </r>
       <r>   21.4474    0.0000 </r>
       <r>   21.4870    0.0000 </r>
       <r>   21.8863    0.0000 </r>
       <r>   22.1564    0.0000 </r>
       <r>   22.2280    0.0000 </r>
       <r>   22.9273    0.0000 </r>
       <r>   23.1639    0.0000 </r>
       <r>   23.3730    0.0000 </r>
       <r>   24.0089    0.0000 </r>
       <r>   24.2713    0.0000 </r>
       <r>   24.5628    0.0000 </r>
       <r>   24.7403    0.0000 </r>
       <r>   25.3089    0.0000 </r>
       <r>   25.5001    0.0000 </r>
       <r>   25.8403    0.0000 </r>
       <r>   26.4866    0.0000 </r>
       <r>   26.4942    0.0000 </r>
       <r>   26.9255    0.0000 </r>
       <r>   26.9338    0.0000 </r>
       <r>   27.1043    0.0000 </r>
       <r>   27.2085    0.0000 </r>
       <r>   27.5006    0.0000 </r>
       <r>   27.7270    0.0000 </r>
       <r>   27.9976    0.0000 </r>
       <r>   28.2940    0.0000 </r>
       <r>   28.7806    0.0000 </r>
       <r>   29.3757    0.0000 </r>
       <r>   29.5117    0.0000 </r>
       <r>   29.5327    0.0000 </r>
       <r>   29.9049    0.0000 </r>
       <r>   29.9230    0.0000 </r>
       <r>   30.1854    0.0000 </r>
       <r>   30.4404    0.0000 </r>
       <r>   30.5712    0.0000 </r>
       <r>   30.9708    0.0000 </r>
       <r>   31.2081    0.0000 </r>
       <r>   31.3164    0.0000 </r>
       <r>   31.3403    0.0000 </r>
       <r>   32.1395    0.0000 </r>
       <r>   32.3501    0.0000 </r>
       <r>   32.6218    0.0000 </r>
       <r>   32.7728    0.0000 </r>
       <r>   33.1128    0.0000 </r>
       <r>   33.4887    0.0000 </r>
       <r>   34.2189    0.0000 </r>
       <r>   34.3232    0.0000 </r>
       <r>   34.5933    0.0000 </r>
       <r>   34.6470    0.0000 </r>
       <r>   34.7975    0.0000 </r>
[...]
       <r>    31.8436     0.0451   212.6817 </r>
       <r>    31.8701    15.1717   213.0824 </r>
       <r>    31.8965    10.6052   213.3624 </r>
       <r>    31.9229     6.9701   213.5465 </r>
       <r>    31.9493    11.2674   213.8441 </r>
       <r>    31.9757     3.8259   213.9451 </r>
       <r>    32.0021     6.3928   214.1139 </r>
       <r>    32.0285     2.9682   214.1923 </r>
       <r>    32.0549     0.8875   214.2157 </r>
       <r>    32.0813    16.3809   214.6483 </r>
       <r>    32.1077     9.0898   214.8883 </r>
       <r>    32.1341     3.9254   214.9920 </r>
       <r>    32.1605     7.1506   215.1808 </r>
       <r>    32.1869     9.0662   215.4202 </r>
       <r>    32.2134    10.3180   215.6927 </r>
       <r>    32.2398     7.4494   215.8894 </r>
       <r>    32.2662     4.3412   216.0041 </r>
       <r>    32.2926    16.3426   216.4356 </r>
       <r>    32.3190    12.3992   216.7631 </r>
       <r>    32.3454    13.2971   217.1142 </r>
       <r>    32.3718     7.6733   217.3168 </r>
       <r>    32.3982     7.9586   217.5270 </r>
       <r>    32.4246     4.8905   217.6561 </r>
       <r>    32.4510     9.9023   217.9176 </r>
       <r>    32.4774     8.1934   218.1340 </r>
       <r>    32.5038    11.8465   218.4468 </r>
       <r>    32.5302     8.0474   218.6593 </r>
       <r>    32.5566    14.7569   219.0490 </r>
       <r>    32.5831    11.6432   219.3565 </r>
       <r>    32.6095     1.7656   219.4031 </r>
       <r>    32.6359    21.1051   219.9604 </r>
       <r>    32.6623     6.9178   220.1431 </r>
       <r>    32.6887     6.9690   220.3272 </r>
       <r>    32.7151     5.4867   220.4721 </r>
       <r>    32.7415     3.8530   220.5738 </r>
       <r>    32.7679    13.8981   220.9408 </r>
       <r>    32.7943     8.9393   221.1769 </r>
       <r>    32.8207    13.5650   221.5351 </r>
       <r>    32.8471     4.5332   221.6548 </r>
       <r>    32.8735     2.4705   221.7200 </r>
       <r>    32.8999     7.0468   221.9061 </r>
       <r>    32.9263     6.0842   222.0668 </r>
       <r>    32.9528    10.4805   222.3436 </r>
       <r>    32.9792     4.8880   222.4726 </r>
       <r>    33.0056     1.4448   222.5108 </r>
       <r>    33.0320     0.5011   222.5240 </r>
       <r>    33.0584    12.4709   222.8533 </r>
       <r>    33.0848    16.9893   223.3020 </r>
       <r>    33.1112    10.6689   223.5837 </r>
       <r>    33.1376    11.2367   223.8804 </r>
       <r>    33.1640     3.6256   223.9762 </r>
       <r>    33.1904     3.9742   224.0811 </r>
       <r>    33.2168     1.5832   224.1229 </r>
       <r>    33.2432     8.2193   224.3400 </r>
       <r>    33.2696     6.4307   224.5098 </r>
       <r>    33.2961     6.2027   224.6736 </r>
       <r>    33.3225    10.1996   224.9430 </r>
       <r>    33.3489     3.0431   225.0233 </r>
       <r>    33.3753     4.2288   225.1350 </r>
       <r>    33.4017     6.8770   225.3166 </r>
       <r>    33.4281     3.4322   225.4072 </r>
       <r>    33.4545    10.3146   225.6796 </r>
       <r>    33.4809    16.3827   226.1122 </r>
       <r>    33.5073     7.8195   226.3187 </r>
       <r>    33.5337     0.0273   226.3194 </r>
       <r>    33.5601     0.0022   226.3195 </r>
       <r>    33.5865     4.7094   226.4439 </r>
       <r>    33.6129    20.1180   226.9751 </r>
       <r>    33.6393     5.6739   227.1250 </r>
       <r>    33.6658     0.0164   227.1254 </r>
       <r>    33.6922     6.2988   227.2917 </r>
       <r>    33.7186    24.2533   227.9322 </r>
       <r>    33.7450    15.0833   228.3305 </r>
       <r>    33.7714    16.1889   228.7580 </r>
       <r>    33.7978     2.8175   228.8324 </r>
       <r>    33.8242     7.9324   229.0419 </r>
       <r>    33.8506     8.2579   229.2600 </r>
       <r>    33.8770     5.6878   229.4101 </r>
       <r>    33.9034     1.8397   229.4587 </r>
       <r>    33.9298     5.3423   229.5998 </r>
       <r>    33.9562     9.1180   229.8406 </r>
       <r>    33.9826     6.0251   229.9997 </r>
       <r>    34.0090    19.4793   230.5141 </r>
       <r>    34.0355    13.1707   230.8619 </r>
       <r>    34.0619     6.0401   231.0214 </r>
       <r>    34.0883     4.4943   231.1401 </r>
       <r>    34.1147     9.2083   231.3832 </r>
       <r>    34.1411     6.1484   231.5456 </r>
       <r>    34.1675     6.8074   231.7254 </r>
       <r>    34.1939     9.2333   231.9692 </r>
       <r>    34.2203    16.6058   232.4077 </r>
       <r>    34.2467     7.1637   232.5969 </r>
       <r>    34.2731     6.9011   232.7791 </r>
       <r>    34.2995     2.6000   232.8478 </r>
       <r>    34.3259     8.8408   233.0812 </r>
       <r>    34.3523    12.6788   233.4161 </r>
       <r>    34.3788     0.9657   233.4416 </r>
       <r>    34.4052     4.1034   233.5499 </r>
       <r>    34.4316     0.2134   233.5556 </r>
       <r>    34.4580     0.4644   233.5678 </r>
       <r>    34.4844    15.4506   233.9758 </r>
       <r>    34.5108     3.0240   234.0557 </r>
       <r>    34.5372     2.4611   234.1207 </r>
       <r>    34.5636     2.1216   234.1767 </r>
       <r>    34.5900    15.8854   234.5962 </r>
       <r>    34.6164    11.6074   234.9027 </r>
       <r>    34.6428    11.0638   235.1949 </r>
       <r>    34.6692     5.2375   235.3332 </r>
       <r>    34.6956     0.0486   235.3345 </r>
       <r>    34.7220     2.9137   235.4114 </r>
       <r>    34.7485     1.7265   235.4570 </r>
       <r>    34.7749    10.2541   235.7278 </r>
       <r>    34.8013    10.4167   236.0029 </r>
       <r>    34.8277     8.7709   236.2345 </r>
       <r>    34.8541     6.4377   236.4045 </r>
       <r>    34.8805     8.8255   236.6375 </r>
       <r>    34.9069     4.1772   236.7479 </r>
       <r>    34.9333    11.6344   237.0551 </r>
       <r>    34.9597     3.0052   237.1344 </r>
       <r>    34.9861     4.0442   237.2412 </r>
       <r>    35.0125     6.2533   237.4064 </r>
       <r>    35.0389     9.6445   237.6611 </r>
       <r>    35.0653    10.7045   237.9437 </r>
       <r>    35.0918     9.5344   238.1955 </r>
       <r>    35.1182     3.4159   238.2857 </r>
       <r>    35.1446    10.3521   238.5591 </r>
       <r>    35.1710     2.0259   238.6126 </r>
       <r>    35.1974     4.7843   238.7389 </r>
       <r>    35.2238     6.6249   238.9139 </r>
       <r>    35.2502    12.9514   239.2559 </r>
       <r>    35.2766     9.1872   239.4985 </r>
       <r>    35.3030     0.5828   239.5139 </r>
       <r>    35.3294     0.0002   239.5139 </r>
       <r>    35.3558     1.4691   239.5527 </r>
       <r>    35.3822     7.1496   239.7415 </r>
       <r>    35.4086     2.6657   239.8119 </r>
       <r>    35.4350     8.7163   240.0421 </r>
       <r>    35.4615     2.4756   240.1074 </r>
       <r>    35.4879    21.6314   240.6787 </r>
       <r>    35.5143    20.2337   241.2130 </r>
       <r>    35.5407     2.7821   241.2864 </r>
       <r>    35.5671     8.9236   241.5221 </r>
       <r>    35.5935    16.5449   241.9590 </r>
       <r>    35.6199     3.6556   242.0555 </r>
       <r>    35.6463     0.0014   242.0556 </r>
       <r>    35.6727     5.0114   242.1879 </r>
       <r>    35.6991    20.1590   242.7203 </r>
       <r>    35.7255    14.3941   243.1004 </r>
       <r>    35.7519     4.6098   243.2221 </r>
       <r>    35.7783     4.5030   243.3410 </r>
       <r>    35.8047     8.4147   243.5632 </r>
       <r>    35.8312    11.6800   243.8717 </r>
       <r>    35.8576    16.3158   244.3025 </r>
       <r>    35.8840     1.6946   244.3473 </r>
       <r>    35.9104     5.7921   244.5002 </r>
       <r>    35.9368     7.0700   244.6869 </r>
       <r>    35.9632     8.1030   244.9009 </r>
       <r>    35.9896     9.8009   245.1597 </r>
       <r>    36.0160    10.0735   245.4257 </r>
       <r>    36.0424     0.4338   245.4372 </r>
       <r>    36.0688     3.3006   245.5243 </r>
       <r>    36.0952     0.6468   245.5414 </r>
       <r>    36.1216    10.8232   245.8272 </r>
       <r>    36.1480     3.8435   245.9287 </r>
       <r>    36.1745     1.1536   245.9592 </r>
       <r>    36.2009     2.5688   246.0270 </r>
       <r>    36.2273    15.6691   246.4408 </r>
       <r>    36.2537     7.9381   246.6504 </r>
       <r>    36.2801    13.3584   247.0032 </r>
       <r>    36.3065    17.3914   247.4625 </r>
       <r>    36.3329     3.6050   247.5577 </r>
       <r>    36.3593     1.5013   247.5973 </r>
       <r>    36.3857     7.3979   247.7927 </r>
       <r>    36.4121    14.4615   248.1745 </r>
       <r>    36.4385    11.4977   248.4782 </r>
       <r>    36.4649    23.1629   249.0898 </r>
       <r>    36.4913     9.3653   249.3372 </r>
       <r>    36.5177    13.6864   249.6986 </r>
       <r>    36.5442    10.0883   249.9650 </r>
       <r>    36.5706     6.3570   250.1329 </r>
       <r>    36.5970     9.5274   250.3844 </r>
       <r>    36.6234     1.2201   250.4167 </r>
       <r>    36.6498     0.5501   250.4312 </r>
       <r>    36.6762     2.3847   250.4942 </r>
       <r>    36.7026     7.5043   250.6923 </r>
       <r>    36.7290     5.7012   250.8429 </r>
       <r>    36.7554    12.5298   251.1738 </r>
       <r>    36.7818     5.3992   251.3163 </r>
       <r>    36.8082    10.4717   251.5929 </r>
       <r>    36.8346    22.1097   252.1767 </r>
       <r>    36.8610     6.5654   252.3501 </r>
       <r>    36.8874    16.9525   252.7978 </r>
       <r>    36.9139     6.7552   252.9762 </r>
       <r>    36.9403     9.6430   253.2308 </r>
       <r>    36.9667     6.6751   253.4071 </r>
       <r>    36.9931     5.9586   253.5644 </r>
       <r>    37.0195     7.6374   253.7661 </r>
       <r>    37.0459    10.5462   254.0446 </r>
       <r>    37.0723     9.3301   254.2910 </r>
       <r>    37.0987    16.2078   254.7190 </r>
       <r>    37.1251     6.3978   254.8879 </r>
       <r>    37.1515     7.9529   255.0980 </r>
       <r>    37.1779     9.6974   255.3540 </r>
       <r>    37.2043     8.4687   255.5777 </r>
       <r>    37.2307     2.9234   255.6549 </r>
       <r>    37.2572     8.8796   255.8894 </r>
       <r>    37.2836     4.4640   256.0072 </r>
       <r>    37.3100     5.0028   256.1394 </r>
       <r>    37.3364    12.5045   256.4696 </r>
       <r>    37.3628     6.2931   256.6357 </r>
       <r>    37.3892     5.4870   256.7806 </r>
       <r>    37.4156     3.0403   256.8609 </r>
       <r>    37.4420     2.7042   256.9323 </r>
       <r>    37.4684     5.6675   257.0820 </r>
       <r>    37.4948     6.6677   257.2581 </r>
       <r>    37.5212    12.9728   257.6007 </r>
       <r>    37.5476     2.8616   257.6762 </r>
       <r>    37.5740    14.5467   258.0604 </r>
       <r>    37.6004    12.5590   258.3920 </r>
       <r>    37.6269     2.1038   258.4476 </r>
       <r>    37.6533     8.9795   258.6847 </r>
       <r>    37.6797    11.4117   258.9860 </r>
       <r>    37.7061     5.8219   259.1398 </r>
       <r>    37.7325     4.3980   259.2559 </r>
       <r>    37.7589     8.1462   259.4710 </r>
       <r>    37.7853    17.8254   259.9418 </r>
       <r>    37.8117    11.2950   260.2400 </r>
       <r>    37.8381    13.4271   260.5946 </r>
       <r>    37.8645    11.0712   260.8870 </r>
       <r>    37.8909     4.8780   261.0158 </r>
       <r>    37.9173     7.4522   261.2126 </r>
       <r>    37.9437    19.4441   261.7260 </r>
       <r>    37.9701    10.8925   262.0137 </r>
       <r>    37.9966     2.3438   262.0756 </r>
       <r>    38.0230     5.0128   262.2080 </r>
       <r>    38.0494     2.7288   262.2800 </r>
       <r>    38.0758     1.8637   262.3292 </r>
       <r>    38.1022     4.8772   262.4580 </r>
       <r>    38.1286     0.0230   262.4586 </r>
       <r>    38.1550     2.5939   262.5271 </r>
       <r>    38.1814     5.1955   262.6643 </r>
       <r>    38.2078     7.9528   262.8743 </r>
       <r>    38.2342     9.4516   263.1239 </r>
       <r>    38.2606     0.0402   263.1250 </r>
       <r>    38.2870     0.3609   263.1345 </r>
       <r>    38.3134     8.6138   263.3620 </r>
       <r>    38.3399     3.6470   263.4583 </r>
       <r>    38.3663     0.0011   263.4583 </r>
       <r>    38.3927     0.0009   263.4584 </r>
       <r>    38.4191     3.4359   263.5491 </r>
       <r>    38.4455     2.8767   263.6251 </r>
       <r>    38.4719     2.2669   263.6849 </r>
       <r>    38.4983     2.3802   263.7478 </r>
       <r>    38.5247     1.6617   263.7917 </r>
       <r>    38.5511     0.0004   263.7917 </r>
       <r>    38.5775     0.0000   263.7917 </r>
       <r>    38.6039     0.0000   263.7917 </r>
       <r>    38.6303     0.0000   263.7917 </r>
       <r>    38.6567     0.0000   263.7917 </r>
       <r>    38.6831     0.0072   263.7919 </r>
       <r>    38.7096     2.8189   263.8663 </r>
       <r>    38.7360     1.9095   263.9167 </r>
       <r>    38.7624     1.2352   263.9493 </r>
       <r>    38.7888     0.3405   263.9583 </r>
       <r>    38.8152     0.0000   263.9583 </r>
       <r>    38.8416     0.0000   263.9583 </r>
       <r>    38.8680     0.0000   263.9583 </r>
       <r>    38.8944     0.0000   263.9583 </r>
       <r>    38.9208     0.0000   263.9583 </r>
       <r>    38.9472     0.0000   263.9583 </r>
       <r>    38.9736     0.0000   263.9583 </r>
       <r>    39.0000     0.0000   263.9583 </r>
       <r>    39.0264     0.0003   263.9583 </r>
       <r>    39.0528     0.8950   263.9820 </r>
       <r>    39.0793     0.6825   264.0000 </r>
       <r>    39.1057     0.0001   264.0000 </r>
       <r>    39.1321     0.0000   264.0000 </r>
       <r>    39.1585     0.0000   264.0000 </r>
       <r>    39.1849     0.0000   264.0000 </r>
       <r>    39.2113     0.0000   264.0000 </r>
       <r>    39.2377     0.0000   264.0000 </r>
       <r>    39.2641     0.0000   264.0000 </r>
       <r>    39.2905     0.0000   264.0000 </r>
       <r>    39.3169     0.0000   264.0000 </r>
       <r>    39.3433     0.0000   264.0000 </r>
       <r>    39.3697     0.0000   264.0000 </r>
       <r>    39.3961     0.0000   264.0000 </r>
       <r>    39.4226     0.0000   264.0000 </r>
       <r>    39.4490     0.0000   264.0000 </r>
       <r>    39.4754     0.0000   264.0000 </r>
       <r>    39.5018     0.0000   264.0000 </r>
       <r>    39.5282     0.0000   264.0000 </r>
       <r>    39.5546     0.0000   264.0000 </r>
       <r>    39.5810     0.0000   264.0000 </r>
       <r>    39.6074     0.0000   264.0000 </r>
       <r>    39.6338     0.0000   264.0000 </r>
       <r>    39.6602     0.0000   264.0000 </r>
       <r>    39.6866     0.0000   264.0000 </r>
       <r>    39.7130     0.0000   264.0000 </r>
       <r>    39.7394     0.0000   264.0000 </r>
       <r>    39.7658     0.0000   264.0000 </r>
       <r>    39.7923     0.0000   264.0000 </r>
       <r>    39.8187     0.0000   264.0000 </r>
       <r>    39.8451     0.0000   264.0000 </r>
       <r>    39.8715     0.0000   264.0000 </r>
       <r>    39.8979     0.0000   264.0000 </r>
       <r>    39.9243     0.0000   264.0000 </r>
       <r>    39.9507     0.0000   264.0000 </r>
       <r>    39.9771     0.0000   264.0000 </r>
       <r>    40.0035     0.0000   264.0000 </r>
       <r>    40.0299     0.0000   264.0000 </r>
       <r>    40.0563     0.0000   264.0000 </r>
       <r>    40.0827     0.0000   264.0000 </r>
       <r>    40.1091     0.0000   264.0000 </r>
       <r>    40.1355     0.0000   264.0000 </r>
       <r>    40.1620     0.0000   264.0000 </r>
       <r>    40.1884     0.0000   264.0000 </r>
       <r>    40.2148     0.0000   264.0000 </r>
       <r>    40.2412     0.0000   264.0000 </r>
       <r>    40.2676     0.0000   264.0000 </r>
       <r>    40.2940     0.0000   264.0000 </r>
       <r>    40.3204     0.0000   264.0000 </r>
       <r>    40.3468     0.0000   264.0000 </r>
       <r>    40.3732     0.0000   264.0000 </r>
       <r>    40.3996     0.0000   264.0000 </r>
       <r>    40.4260     0.0000   264.0000 </r>
       <r>    40.4524     0.0000   264.0000 </r>
       <r>    40.4788     0.0000   264.0000 </r>
       <r>    40.5053     0.0000   264.0000 </r>
       <r>    40.5317     0.0000   264.0000 </r>
       <r>    40.5581     0.0000   264.0000 </r>
       <r>    40.5845     0.0000   264.0000 </r>
       <r>    40.6109     0.0000   264.0000 </r>
       <r>    40.6373     0.0000   264.0000 </r>
       <r>    40.6637     0.0000   264.0000 </r>
       <r>    40.6901     0.0000   264.0000 </r>
       <r>    40.7165     0.0000   264.0000 </r>
       <r>    40.7429     0.0000   264.0000 </r>
       <r>    40.7693     0.0000   264.0000 </r>
       <r>    40.7957     0.0000   264.0000 </r>
       <r>    40.8221     0.0000   264.0000 </r>
       <r>    40.8485     0.0000   264.0000 </r>
       <r>    40.8750     0.0000   264.0000 </r>
       <r>    40.9014     0.0000   264.0000 </r>
       <r>    40.9278     0.0000   264.0000 </r>
       <r>    40.9542     0.0000   264.0000 </r>
       <r>    40.9806     0.0000   264.0000 </r>
       <r>    41.0070     0.0000   264.0000 </r>
       <r>    41.0334     0.0000   264.0000 </r>
       <r>    41.0598     0.0000   264.0000 </r>
       <r>    41.0862     0.0000   264.0000 </r>
       <r>    41.1126     0.0000   264.0000 </r>
       <r>    41.1390     0.0000   264.0000 </r>
       <r>    41.1654     0.0000   264.0000 </r>
       <r>    41.1918     0.0000   264.0000 </r>
       <r>    41.2182     0.0000   264.0000 </r>
       <r>    41.2447     0.0000   264.0000 </r>
       <r>    41.2711     0.0000   264.0000 </r>
       <r>    41.2975     0.0000   264.0000 </r>
       <r>    41.3239     0.0000   264.0000 </r>
       <r>    41.3503     0.0000   264.0000 </r>
       <r>    41.3767     0.0000   264.0000 </r>
       <r>    41.4031     0.0000   264.0000 </r>
       <r>    41.4295     0.0000   264.0000 </r>
       <r>    41.4559     0.0000   264.0000 </r>
       <r>    41.4823     0.0000   264.0000 </r>
       <r>    41.5087     0.0000   264.0000 </r>
       <r>    41.5351     0.0000   264.0000 </r>
       <r>    41.5615     0.0000   264.0000 </r>
       <r>    41.5880     0.0000   264.0000 </r>
       <r>    41.6144     0.0000   264.0000 </r>
       <r>    41.6408     0.0000   264.0000 </r>
       <r>    41.6672     0.0000   264.0000 </r>
       <r>    41.6936     0.0000   264.0000 </r>
       <r>    41.7200     0.0000   264.0000 </r>
       <r>    41.7464     0.0000   264.0000 </r>
       <r>    41.7728     0.0000   264.0000 </r>
       <r>    41.7992     0.0000   264.0000 </r>
       <r>    41.8256     0.0000   264.0000 </r>
       <r>    41.8520     0.0000   264.0000 </r>
       <r>    41.8784     0.0000   264.0000 </r>
       <r>    41.9048     0.0000   264.0000 </r>
       <r>    41.9312     0.0000   264.0000 </r>
      </set>
     </set>
    </array>
   </total>
  </dos>
 </calculation>
 <structure name="finalpos" >
  <crystal>
   <varray name="basis" >
    <v>       4.48084843       2.58701885       0.00000000 </v>
    <v>      -4.48084843       2.58701885       0.00000000 </v>
    <v>       0.00000000       0.00000000       8.52022140 </v>
   </varray>
   <i name="volume">    197.53348383 </i>
   <varray name="rec_basis" >
    <v>       0.11158601       0.19327265       0.00000000 </v>
    <v>      -0.11158601       0.19327265       0.00000000 </v>
    <v>       0.00000000       0.00000000       0.11736784 </v>
   </varray>
  </crystal>
  <varray name="positions" >
   <v>       0.33333300       0.66666600       0.25000000 </v>
   <v>       0.66666600       0.33333300       0.25000000 </v>
   <v>       0.15869124       0.31738348       0.25000000 </v>
   <v>       0.31738348       0.15869124       0.25000000 </v>
   <v>       0.15869124       0.84130776       0.25000000 </v>
   <v>       0.84130776       0.15869124       0.25000000 </v>
   <v>       0.68261552       0.84130776       0.25000000 </v>
   <v>       0.84130776       0.68261552       0.25000000 </v>
  </varray>
 </structure>
</modeling>
