<?xml version="1.0" encoding="ISO-8859-1"?>
<modeling>
 <generator>
  <i name="program" type="string">vasp </i>
  <i name="version" type="string">5.4.4.18Apr17-6-g9f103f2a35  </i>
  <i name="subversion" type="string">(build Mar 30 2023 15:39:25) complex            parallel </i>
  <i name="platform" type="string">LinuxIFC </i>
  <i name="date" type="string">2023 05 03 </i>
  <i name="time" type="string">17:29:28 </i>
 </generator>
 <incar>
  <i type="string" name="SYSTEM"> fcc Ni bandstructure</i>
  <i type="int" name="ISTART">     0</i>
  <i type="string" name="PREC">accurate</i>
  <i type="int" name="ISPIN">     2</i>
  <i type="int" name="ICHARG">     2</i>
  <i name="EDIFF">      0.00000100</i>
  <i name="EDIFFG">     -0.00000100</i>
  <i name="ENCUT">    270.00000000</i>
  <i type="int" name="ISMEAR">     1</i>
  <i name="SIGMA">      0.20000000</i>
  <i type="int" name="LORBIT">    11</i>
  <v type="int" name="KPOINT_BSE">    -1     0     0     0</v>
 </incar>
 <structure name="primitive_cell" >
  <crystal>
   <varray name="basis" >
    <v>       1.76500000       1.76500000       0.00000000 </v>
    <v>       0.00000000       1.76500000       1.76500000 </v>
    <v>       1.76500000       0.00000000       1.76500000 </v>
   </varray>
   <i name="volume">     10.99674425 </i>
   <varray name="rec_basis" >
    <v>       0.28328612       0.28328612      -0.28328612 </v>
    <v>      -0.28328612       0.28328612       0.28328612 </v>
    <v>       0.28328612      -0.28328612       0.28328612 </v>
   </varray>
  </crystal>
  <varray name="positions" >
   <v>       0.00000000       0.00000000       0.00000000 </v>
  </varray>
 </structure>
 <varray name="primitive_index" >
  <v type="int" >        1 </v>
 </varray>
 <kpoints>
  <generation param="Monkhorst-Pack">
   <v type="int" name="divisions">      11       11       11 </v>
   <v name="usershift">      0.00000000       0.00000000       0.00000000 </v>
   <v name="genvec1">      0.09090909       0.00000000       0.00000000 </v>
   <v name="genvec2">      0.00000000       0.09090909       0.00000000 </v>
   <v name="genvec3">      0.00000000       0.00000000       0.09090909 </v>
   <v name="shift">      0.00000000       0.00000000       0.00000000 </v>
  </generation>
  <varray name="kpointlist" >
   <v>       0.00000000       0.00000000       0.00000000 </v>
   <v>       0.09090909       0.00000000       0.00000000 </v>
   <v>       0.18181818       0.00000000       0.00000000 </v>
   <v>       0.27272727       0.00000000       0.00000000 </v>
   <v>       0.36363636       0.00000000       0.00000000 </v>
   <v>       0.45454545       0.00000000       0.00000000 </v>
   <v>       0.09090909       0.09090909       0.00000000 </v>
   <v>       0.18181818       0.09090909       0.00000000 </v>
   <v>       0.27272727       0.09090909       0.00000000 </v>
   <v>       0.36363636       0.09090909       0.00000000 </v>
   <v>       0.45454545       0.09090909       0.00000000 </v>
   <v>      -0.45454545       0.09090909       0.00000000 </v>
   <v>      -0.36363636       0.09090909       0.00000000 </v>
   <v>      -0.27272727       0.09090909       0.00000000 </v>
   <v>      -0.18181818       0.09090909       0.00000000 </v>
   <v>      -0.09090909       0.09090909       0.00000000 </v>
   <v>       0.18181818       0.18181818       0.00000000 </v>
   <v>       0.27272727       0.18181818       0.00000000 </v>
   <v>       0.36363636       0.18181818       0.00000000 </v>
   <v>       0.45454545       0.18181818       0.00000000 </v>
   <v>      -0.45454545       0.18181818       0.00000000 </v>
   <v>      -0.36363636       0.18181818       0.00000000 </v>
   <v>      -0.27272727       0.18181818       0.00000000 </v>
   <v>      -0.18181818       0.18181818       0.00000000 </v>
   <v>       0.27272727       0.27272727       0.00000000 </v>
   <v>       0.36363636       0.27272727       0.00000000 </v>
   <v>       0.45454545       0.27272727       0.00000000 </v>
   <v>      -0.45454545       0.27272727       0.00000000 </v>
   <v>      -0.36363636       0.27272727       0.00000000 </v>
   <v>      -0.27272727       0.27272727       0.00000000 </v>
   <v>       0.36363636       0.36363636       0.00000000 </v>
   <v>       0.45454545       0.36363636       0.00000000 </v>
   <v>      -0.45454545       0.36363636       0.00000000 </v>
   <v>      -0.36363636       0.36363636       0.00000000 </v>
   <v>       0.45454545       0.45454545       0.00000000 </v>
   <v>      -0.45454545       0.45454545       0.00000000 </v>
   <v>       0.27272727       0.18181818       0.09090909 </v>
   <v>       0.36363636       0.18181818       0.09090909 </v>
   <v>       0.45454545       0.18181818       0.09090909 </v>
   <v>      -0.45454545       0.18181818       0.09090909 </v>
   <v>       0.36363636       0.27272727       0.09090909 </v>
   <v>       0.45454545       0.27272727       0.09090909 </v>
   <v>      -0.45454545       0.27272727       0.09090909 </v>
   <v>      -0.36363636       0.27272727       0.09090909 </v>
   <v>      -0.27272727       0.27272727       0.09090909 </v>
   <v>      -0.18181818       0.27272727       0.09090909 </v>
   <v>       0.45454545       0.36363636       0.09090909 </v>
   <v>      -0.45454545       0.36363636       0.09090909 </v>
   <v>      -0.36363636       0.36363636       0.09090909 </v>
   <v>      -0.27272727       0.36363636       0.09090909 </v>
   <v>      -0.45454545       0.45454545       0.09090909 </v>
   <v>      -0.36363636       0.45454545       0.09090909 </v>
   <v>      -0.45454545       0.36363636       0.18181818 </v>
   <v>      -0.36363636       0.36363636       0.18181818 </v>
   <v>      -0.36363636       0.45454545       0.18181818 </v>
   <v>      -0.27272727       0.45454545       0.18181818 </v>
  </varray>
  <varray name="weights" >
   <v>       0.00075131 </v>
   <v>       0.00601052 </v>
   <v>       0.00601052 </v>
   <v>       0.00601052 </v>
   <v>       0.00601052 </v>
   <v>       0.00601052 </v>
   <v>       0.00450789 </v>
   <v>       0.01803156 </v>
   <v>       0.01803156 </v>
   <v>       0.01803156 </v>
   <v>       0.01803156 </v>
   <v>       0.01803156 </v>
   <v>       0.01803156 </v>
   <v>       0.01803156 </v>
   <v>       0.01803156 </v>
   <v>       0.00901578 </v>
   <v>       0.00450789 </v>
   <v>       0.01803156 </v>
   <v>       0.01803156 </v>
   <v>       0.01803156 </v>
   <v>       0.01803156 </v>
   <v>       0.01803156 </v>
   <v>       0.01803156 </v>
   <v>       0.00901578 </v>
   <v>       0.00450789 </v>
   <v>       0.01803156 </v>
   <v>       0.01803156 </v>
   <v>       0.01803156 </v>
   <v>       0.01803156 </v>
   <v>       0.00901578 </v>
   <v>       0.00450789 </v>
   <v>       0.01803156 </v>
   <v>       0.01803156 </v>
   <v>       0.00901578 </v>
   <v>       0.00450789 </v>
   <v>       0.00901578 </v>
   <v>       0.01803156 </v>
   <v>       0.03606311 </v>
   <v>       0.03606311 </v>
   <v>       0.03606311 </v>
   <v>       0.01803156 </v>
   <v>       0.03606311 </v>
   <v>       0.03606311 </v>
   <v>       0.03606311 </v>
   <v>       0.03606311 </v>
   <v>       0.01803156 </v>
   <v>       0.01803156 </v>
   <v>       0.03606311 </v>
   <v>       0.03606311 </v>
   <v>       0.01803156 </v>
   <v>       0.01803156 </v>
   <v>       0.01803156 </v>
   <v>       0.01803156 </v>
   <v>       0.03606311 </v>
   <v>       0.01803156 </v>
   <v>       0.01803156 </v>
  </varray>
 </kpoints>
 <parameters>
  <separator name="general" >
   <i type="string" name="SYSTEM">fcc Ni bandstructure</i>
   <i type="logical" name="LCOMPAT"> F  </i>
  </separator>
  <separator name="electronic" >
   <i type="string" name="PREC">accura</i>
   <i name="ENMAX">    270.00000000</i>
   <i name="ENAUG">    544.56500000</i>
   <i name="EDIFF">      0.00000100</i>
   <i type="int" name="IALGO">    38</i>
   <i type="int" name="IWAVPR">    10</i>
   <i type="int" name="NBANDS">    12</i>
   <i name="NELECT">     10.00000000</i>
   <i type="int" name="TURBO">     0</i>
   <i type="int" name="IRESTART">     0</i>
   <i type="int" name="NREBOOT">     0</i>
   <i type="int" name="NMIN">     0</i>
   <i name="EREF">      0.00000000</i>
   <separator name="electronic smearing" >
    <i type="int" name="ISMEAR">     1</i>
    <i name="SIGMA">      0.20000000</i>
    <i name="KSPACING">      0.50000000</i>
    <i type="logical" name="KGAMMA"> T  </i>
   </separator>
   <separator name="electronic projectors" >
    <i type="logical" name="LREAL"> F  </i>
    <v name="ROPT">      0.00000000</v>
    <i type="int" name="LMAXPAW">  -100</i>
    <i type="int" name="LMAXMIX">     2</i>
    <i type="logical" name="NLSPLINE"> F  </i>
   </separator>
   <separator name="electronic startup" >
    <i type="int" name="ISTART">     0</i>
    <i type="int" name="ICHARG">     2</i>
    <i type="int" name="INIWAV">     1</i>
   </separator>
   <separator name="electronic spin" >
    <i type="int" name="ISPIN">     2</i>
    <i type="logical" name="LNONCOLLINEAR"> F  </i>
    <v name="MAGMOM">      1.00000000</v>
    <i name="NUPDOWN">     -1.00000000</i>
    <i type="logical" name="LSORBIT"> F  </i>
    <v name="SAXIS">      0.00000000      0.00000000      1.00000000</v>
    <i type="logical" name="LSPIRAL"> F  </i>
    <v name="QSPIRAL">      0.00000000      0.00000000      0.00000000</v>
    <i type="logical" name="LZEROZ"> F  </i>
   </separator>
   <separator name="electronic exchange-correlation" >
    <i type="logical" name="LASPH"> F  </i>
    <i type="logical" name="LMETAGGA"> F  </i>
   </separator>
   <separator name="electronic convergence" >
    <i type="int" name="NELM">    60</i>
    <i type="int" name="NELMDL">    -5</i>
    <i type="int" name="NELMIN">     2</i>
    <i name="ENINI">    270.00000000</i>
    <separator name="electronic convergence detail" >
     <i type="logical" name="LDIAG"> T  </i>
     <i type="logical" name="LSUBROT"> F  </i>
     <i name="WEIMIN">      0.00000000</i>
     <i name="EBREAK">      0.00000000</i>
     <i name="DEPER">      0.30000000</i>
     <i type="int" name="NRMM">     4</i>
     <i name="TIME">      0.40000000</i>
    </separator>
   </separator>
   <separator name="electronic mixer" >
    <i name="AMIX">      0.40000000</i>
    <i name="BMIX">      1.00000000</i>
    <i name="AMIN">      0.10000000</i>
    <i name="AMIX_MAG">      1.60000000</i>
    <i name="BMIX_MAG">      1.00000000</i>
    <separator name="electronic mixer details" >
     <i type="int" name="IMIX">     4</i>
     <i type="logical" name="MIXFIRST"> F  </i>
     <i type="int" name="MAXMIX">   -45</i>
     <i name="WC">    100.00000000</i>
     <i type="int" name="INIMIX">     1</i>
     <i type="int" name="MIXPRE">     1</i>
     <i type="int" name="MREMOVE">     5</i>
    </separator>
   </separator>
   <separator name="electronic dipolcorrection" >
    <i type="logical" name="LDIPOL"> F  </i>
    <i type="logical" name="LMONO"> F  </i>
    <i type="int" name="IDIPOL">     0</i>
    <i name="EPSILON">      1.00000000</i>
    <v name="DIPOL">   -100.00000000   -100.00000000   -100.00000000</v>
    <i name="EFIELD">      0.00000000</i>
   </separator>
  </separator>
  <separator name="grids" >
   <i type="int" name="NGX">    14</i>
   <i type="int" name="NGY">    14</i>
   <i type="int" name="NGZ">    14</i>
   <i type="int" name="NGXF">    28</i>
   <i type="int" name="NGYF">    28</i>
   <i type="int" name="NGZF">    28</i>
   <i type="logical" name="ADDGRID"> F  </i>
  </separator>
  <separator name="ionic" >
   <i type="int" name="NSW">     0</i>
   <i type="int" name="IBRION">    -1</i>
   <i type="int" name="MDALGO">     0</i>
   <i type="int" name="ISIF">     2</i>
   <i name="PSTRESS">      0.00000000</i>
   <i name="EDIFFG">     -0.00000100</i>
   <i type="int" name="NFREE">     0</i>
   <i name="POTIM">      0.50000000</i>
   <i name="SMASS">     -3.00000000</i>
   <i name="SCALEE">      1.00000000</i>
  </separator>
  <separator name="ionic md" >
   <i name="TEBEG">      0.00010000</i>
   <i name="TEEND">      0.00010000</i>
   <i type="int" name="NBLOCK">     1</i>
   <i type="int" name="KBLOCK">     1</i>
   <i type="int" name="NPACO">   256</i>
   <i name="APACO">     16.00000000</i>
  </separator>
  <separator name="symmetry" >
   <i type="int" name="ISYM">     2</i>
   <i name="SYMPREC">      0.00001000</i>
  </separator>
  <separator name="dos" >
   <i type="int" name="LORBIT">    11</i>
   <v name="RWIGS">     -1.00000000</v>
   <i type="int" name="NEDOS">   301</i>
   <i name="EMIN">     10.00000000</i>
   <i name="EMAX">    -10.00000000</i>
   <i name="EFERMI">      0.00000000</i>
  </separator>
  <separator name="writing" >
   <i type="int" name="NWRITE">     2</i>
   <i type="logical" name="LWAVE"> T  </i>
   <i type="logical" name="LDOWNSAMPLE"> F  </i>
   <i type="logical" name="LCHARG"> T  </i>
   <i type="logical" name="LPARD"> F  </i>
   <i type="logical" name="LVTOT"> F  </i>
   <i type="logical" name="LVHAR"> F  </i>
   <i type="logical" name="LELF"> F  </i>
   <i type="logical" name="LOPTICS"> F  </i>
   <v name="STM">      0.00000000      0.00000000      0.00000000      0.00000000      0.00000000      0.00000000      0.00000000</v>
  </separator>
  <separator name="performance" >
   <i type="int" name="NPAR">    12</i>
   <i type="int" name="NSIM">     4</i>
   <i type="int" name="NBLK">    -1</i>
   <i type="logical" name="LPLANE"> T  </i>
   <i type="logical" name="LSCALAPACK"> T  </i>
   <i type="logical" name="LSCAAWARE"> F  </i>
   <i type="logical" name="LSCALU"> F  </i>
   <i type="logical" name="LASYNC"> F  </i>
   <i type="logical" name="LORBITALREAL"> F  </i>
  </separator>
  <separator name="miscellaneous" >
   <i type="int" name="IDIOT">     3</i>
   <i type="int" name="ISPECIAL">     0</i>
   <i type="logical" name="LMUSIC"> F  </i>
   <v name="POMASS">     58.69000000</v>
   <v name="DARWINR">      0.00000000</v>
   <v name="DARWINV">      1.00000000</v>
   <i type="logical" name="LCORR"> T  </i>
  </separator>
  <i type="logical" name="GGA_COMPAT"> T  </i>
  <i type="logical" name="LBERRY"> F  </i>
  <i type="int" name="ICORELEVEL">     0</i>
  <i type="logical" name="LDAU"> F  </i>
  <i type="int" name="I_CONSTRAINED_M">     0</i>
  <separator name="electronic exchange-correlation" >
   <i type="string" name="GGA">--</i>
   <i type="int" name="VOSKOWN">     0</i>
   <i type="logical" name="LHFCALC"> F  </i>
   <i type="string" name="PRECFOCK"></i>
   <i type="logical" name="LSYMGRAD"> F  </i>
   <i type="logical" name="LHFONE"> F  </i>
   <i type="logical" name="LRHFCALC"> F  </i>
   <i type="logical" name="LTHOMAS"> F  </i>
   <i type="logical" name="LMODELHF"> F  </i>
   <i name="ENCUT4O">     -1.00000000</i>
   <i type="int" name="EXXOEP">     0</i>
   <i type="int" name="FOURORBIT">     0</i>
   <i name="AEXX">      0.00000000</i>
   <i name="HFALPHA">      0.00000000</i>
   <i name="MCALPHA">      0.00000000</i>
   <i name="ALDAX">      1.00000000</i>
   <i name="AGGAX">      1.00000000</i>
   <i name="ALDAC">      1.00000000</i>
   <i name="AGGAC">      1.00000000</i>
   <i type="int" name="NKREDX">     1</i>
   <i type="int" name="NKREDY">     1</i>
   <i type="int" name="NKREDZ">     1</i>
   <i type="logical" name="SHIFTRED"> F  </i>
   <i type="logical" name="ODDONLY"> F  </i>
   <i type="logical" name="EVENONLY"> F  </i>
   <i type="int" name="LMAXFOCK">     0</i>
   <i type="int" name="NMAXFOCKAE">     0</i>
   <i type="logical" name="LFOCKAEDFT"> F  </i>
   <i name="HFSCREEN">      0.00000000</i>
   <i name="HFSCREENC">      0.00000000</i>
   <i type="int" name="NBANDSGWLOW">     0</i>
  </separator>
  <separator name="vdW DFT" >
   <i type="logical" name="LUSE_VDW"> F  </i>
   <i name="Zab_VDW">     -0.84910000</i>
   <i name="PARAM1">      0.12340000</i>
   <i name="PARAM2">      1.00000000</i>
   <i name="PARAM3">      0.00000000</i>
  </separator>
  <separator name="model GW" >
   <i type="int" name="MODEL_GW">     0</i>
   <i name="MODEL_EPS0">      6.59804655</i>
   <i name="MODEL_ALPHA">      1.00000000</i>
  </separator>
  <separator name="linear response parameters" >
   <i type="logical" name="LEPSILON"> F  </i>
   <i type="logical" name="LRPA"> F  </i>
   <i type="logical" name="LNABLA"> F  </i>
   <i type="logical" name="LVEL"> F  </i>
   <i type="int" name="KINTER">     0</i>
   <i name="CSHIFT">      0.10000000</i>
   <i name="OMEGAMAX">     -1.00000000</i>
   <i name="DEG_THRESHOLD">      0.00200000</i>
   <i name="RTIME">     -0.10000000</i>
   <i name="WPLASMAI">      0.00000000</i>
   <v name="DFIELD">      0.00000000      0.00000000      0.00000000</v>
   <v name="WPLASMA">      0.00000000      0.00000000      0.00000000      0.00000000      0.00000000      0.00000000      0.00000000      0.00000000      0.00000000</v>
  </separator>
  <separator name="orbital magnetization" >
   <i type="logical" name="NUCIND"> F  </i>
   <v name="MAGPOS">      0.00000000      0.00000000      0.00000000</v>
   <i type="logical" name="LNICSALL"> T  </i>
   <i type="logical" name="ORBITALMAG"> F  </i>
   <i type="logical" name="LMAGBLOCH"> F  </i>
   <i type="logical" name="LCHIMAG"> F  </i>
   <i type="logical" name="LGAUGE"> T  </i>
   <i type="int" name="MAGATOM">     0</i>
   <v name="MAGDIPOL">      0.00000000      0.00000000      0.00000000</v>
   <v name="AVECCONST">      0.00000000      0.00000000      0.00000000</v>
  </separator>
  <separator name="response functions" >
   <i type="logical" name="LADDER"> F  </i>
   <i type="logical" name="LRPAFORCE"> F  </i>
   <i type="logical" name="LFXC"> F  </i>
   <i type="logical" name="LHARTREE"> T  </i>
   <i type="int" name="IBSE">     0</i>
   <v type="int" name="KPOINT">    -1     0     0     0</v>
   <i type="logical" name="LTCTE"> F  </i>
   <i type="logical" name="LTETE"> F  </i>
   <i type="logical" name="LTRIPLET"> F  </i>
   <i type="logical" name="LFXCEPS"> F  </i>
   <i type="logical" name="LFXHEG"> F  </i>
   <i type="int" name="NATURALO">     2</i>
   <i type="logical" name="L2ORDER"> F  </i>
   <i type="logical" name="LMP2LT"> F  </i>
   <i type="logical" name="LUSEW"> F  </i>
   <i name="ENCUTGW">     -2.00000000</i>
   <i name="ENCUTGWSOFT">     -2.00000000</i>
   <i name="ENCUTLF">     -1.00000000</i>
   <i type="int" name="LMAXMP2">    -1</i>
   <i name="SCISSOR">      0.00000000</i>
   <i type="int" name="NOMEGA">     0</i>
   <i type="int" name="NOMEGAR">     0</i>
   <i type="int" name="NBANDSGW">    -1</i>
   <i type="int" name="NBANDSO">    -1</i>
   <i type="int" name="NBANDSV">    -1</i>
   <i type="int" name="NELM">     1</i>
   <i type="int" name="NELMHF">     1</i>
   <i type="int" name="DIM">     3</i>
   <i type="int" name="ANTIRES">     0</i>
   <i name="OMEGAMAX">    -30.00000000</i>
   <i name="OMEGAMIN">    -30.00000000</i>
   <i name="OMEGATL">   -200.00000000</i>
   <i type="int" name="OMEGAGRID">   140</i>
   <i name="CSHIFT">     -0.10000000</i>
   <i type="logical" name="SELFENERGY"> F  </i>
   <i type="logical" name="LSPECTRAL"> F  </i>
   <i type="logical" name="LSPECTRALGW"> F  </i>
   <i type="logical" name="LSINGLES"> F  </i>
   <i type="logical" name="LFERMIGW"> F  </i>
   <i type="logical" name="ODDONLYGW"> F  </i>
   <i type="logical" name="EVENONLYGW"> F  </i>
   <i type="int" name="NKREDLFX">     1</i>
   <i type="int" name="NKREDLFY">     1</i>
   <i type="int" name="NKREDLFZ">     1</i>
   <i type="int" name="MAXMEM">  2800</i>
   <i type="int" name="TELESCOPE">     0</i>
   <i type="int" name="TAUPAR">     1</i>
   <i type="int" name="OMEGAPAR">    -1</i>
   <i name="LAMBDA">      1.00000000</i>
  </separator>
  <separator name="External order field" >
   <i name="OFIELD_KAPPA">      0.00000000</i>
   <v name="OFIELD_K">      0.00000000      0.00000000      0.00000000</v>
   <i name="OFIELD_Q6_NEAR">      0.00000000</i>
   <i name="OFIELD_Q6_FAR">      0.00000000</i>
   <i name="OFIELD_A">      0.00000000</i>
  </separator>
 </parameters>
 <atominfo>
  <atoms>       1 </atoms>
  <types>       1 </types>
  <array name="atoms" >
   <dimension dim="1">ion</dimension>
   <field type="string">element</field>
   <field type="int">atomtype</field>
   <set>
    <rc><c>Ni</c><c>   1</c></rc>
   </set>
  </array>
  <array name="atomtypes" >
   <dimension dim="1">type</dimension>
   <field type="int">atomspertype</field>
   <field type="string">element</field>
   <field>mass</field>
   <field>valence</field>
   <field type="string">pseudopotential</field>
   <set>
    <rc><c>   1</c><c>Ni</c><c>     58.69000000</c><c>     10.00000000</c><c>  PAW_PBE Ni 02Aug2007                  </c></rc>
   </set>
  </array>
 </atominfo>
 <structure name="initialpos" >
  <crystal>
   <varray name="basis" >
    <v>       1.76500000       1.76500000       0.00000000 </v>
    <v>       0.00000000       1.76500000       1.76500000 </v>
    <v>       1.76500000       0.00000000       1.76500000 </v>
   </varray>
   <i name="volume">     10.99674425 </i>
   <varray name="rec_basis" >
    <v>       0.28328612       0.28328612      -0.28328612 </v>
    <v>      -0.28328612       0.28328612       0.28328612 </v>
    <v>       0.28328612      -0.28328612       0.28328612 </v>
   </varray>
  </crystal>
  <varray name="positions" >
   <v>       0.00000000       0.00000000       0.00000000 </v>
  </varray>
 </structure>
 <calculation>
  <scstep>
   <time name="dav">    0.37    0.37</time>
   <time name="total">    0.39    0.41</time>
   <energy>
    <i name="alphaZ">     46.37681830 </i>
    <i name="ewald">   -935.14218197 </i>
    <i name="hartreedc">   -246.59910884 </i>
    <i name="XCdc">     31.74631735 </i>
    <i name="pawpsdc">    962.83317360 </i>
    <i name="pawaedc">  -1029.67071227 </i>
    <i name="eentropy">      0.00061646 </i>
    <i name="bandstr">     92.46276183 </i>
    <i name="atom">   1077.63607467 </i>
    <i name="e_fr_energy">     -0.35624087 </i>
    <i name="e_wo_entrp">     -0.35685733 </i>
    <i name="e_0_energy">     -0.35644635 </i>
   </energy>
  </scstep>
  <scstep>
   <time name="dav">    0.40    0.41</time>
   <time name="total">    0.40    0.41</time>
   <energy>
    <i name="e_fr_energy">     -6.46209629 </i>
    <i name="e_wo_entrp">     -6.46109810 </i>
    <i name="e_0_energy">     -6.46176356 </i>
   </energy>
  </scstep>
  <scstep>
   <time name="dav">    0.28    0.28</time>
   <time name="total">    0.28    0.28</time>
   <energy>
    <i name="e_fr_energy">     -6.48263917 </i>
    <i name="e_wo_entrp">     -6.48162496 </i>
    <i name="e_0_energy">     -6.48230110 </i>
   </energy>
  </scstep>
  <scstep>
   <time name="dav">    0.31    0.31</time>
   <time name="total">    0.31    0.31</time>
   <energy>
    <i name="e_fr_energy">     -6.48270197 </i>
    <i name="e_wo_entrp">     -6.48168736 </i>
    <i name="e_0_energy">     -6.48236377 </i>
   </energy>
  </scstep>
  <scstep>
   <time name="dav">    0.30    0.30</time>
   <time name="total">    0.31    0.31</time>
   <energy>
    <i name="e_fr_energy">     -6.48270217 </i>
    <i name="e_wo_entrp">     -6.48168755 </i>
    <i name="e_0_energy">     -6.48236396 </i>
   </energy>
  </scstep>
  <scstep>
   <time name="dav">    0.22    0.22</time>
   <time name="total">    0.24    0.24</time>
   <energy>
    <i name="e_fr_energy">     -5.81056720 </i>
    <i name="e_wo_entrp">     -5.80701914 </i>
    <i name="e_0_energy">     -5.80938451 </i>
   </energy>
  </scstep>
  <scstep>
   <time name="dav">    0.23    0.23</time>
   <time name="total">    0.25    0.25</time>
   <energy>
    <i name="e_fr_energy">     -5.48218696 </i>
    <i name="e_wo_entrp">     -5.47989857 </i>
    <i name="e_0_energy">     -5.48142416 </i>
   </energy>
  </scstep>
  <scstep>
   <time name="dav">    0.26    0.26</time>
   <time name="total">    0.28    0.28</time>
   <energy>
    <i name="e_fr_energy">     -5.46745622 </i>
    <i name="e_wo_entrp">     -5.46494569 </i>
    <i name="e_0_energy">     -5.46661938 </i>
   </energy>
  </scstep>
  <scstep>
   <time name="dav">    0.33    0.33</time>
   <time name="total">    0.35    0.35</time>
   <energy>
    <i name="e_fr_energy">     -5.46531614 </i>
    <i name="e_wo_entrp">     -5.46276640 </i>
    <i name="e_0_energy">     -5.46446623 </i>
   </energy>
  </scstep>
  <scstep>
   <time name="dav">    0.28    0.28</time>
   <time name="total">    0.30    0.30</time>
   <energy>
    <i name="e_fr_energy">     -5.46475910 </i>
    <i name="e_wo_entrp">     -5.46218145 </i>
    <i name="e_0_energy">     -5.46389988 </i>
   </energy>
  </scstep>
  <scstep>
   <time name="dav">    0.23    0.23</time>
   <time name="total">    0.25    0.25</time>
   <energy>
    <i name="e_fr_energy">     -5.46476503 </i>
    <i name="e_wo_entrp">     -5.46218364 </i>
    <i name="e_0_energy">     -5.46390457 </i>
   </energy>
  </scstep>
  <scstep>
   <time name="dav">    0.28    0.28</time>
   <time name="total">    0.29    0.29</time>
   <energy>
    <i name="alphaZ">     46.37681830 </i>
    <i name="ewald">   -935.14218197 </i>
    <i name="hartreedc">   -225.98943529 </i>
    <i name="XCdc">     30.67705939 </i>
    <i name="pawpsdc">   1133.20599195 </i>
    <i name="pawaedc">  -1201.63353071 </i>
    <i name="eentropy">     -0.00257971 </i>
    <i name="bandstr">     69.40701881 </i>
    <i name="atom">   1077.63607467 </i>
    <i name="e_fr_energy">     -5.46476456 </i>
    <i name="e_wo_entrp">     -5.46218485 </i>
    <i name="e_0_energy">     -5.46390466 </i>
   </energy>
  </scstep>
  <structure>
   <crystal>
    <varray name="basis" >
     <v>       1.76500000       1.76500000       0.00000000 </v>
     <v>       0.00000000       1.76500000       1.76500000 </v>
     <v>       1.76500000       0.00000000       1.76500000 </v>
    </varray>
    <i name="volume">     10.99674425 </i>
    <varray name="rec_basis" >
     <v>       0.28328612       0.28328612      -0.28328612 </v>
     <v>      -0.28328612       0.28328612       0.28328612 </v>
     <v>       0.28328612      -0.28328612       0.28328612 </v>
    </varray>
   </crystal>
   <varray name="positions" >
    <v>       0.00000000       0.00000000       0.00000000 </v>
   </varray>
  </structure>
  <varray name="forces" >
   <v>       0.00000000      -0.00000000       0.00000000 </v>
  </varray>
  <varray name="stress" >
   <v>     -67.14274733       0.00000000       0.00000000 </v>
   <v>       0.00000000     -67.14274733       0.00000000 </v>
   <v>       0.00000000       0.00000000     -67.14274733 </v>
  </varray>
  <energy>
   <i name="e_fr_energy">     -5.46476456 </i>
   <i name="e_wo_entrp">     -5.46390466 </i>
   <i name="e_0_energy">     -0.00257971 </i>
  </energy>
  <time name="totalsc">    3.82    4.06</time>
  <eigenvalues>
   <array>
    <dimension dim="1">band</dimension>
    <dimension dim="2">kpoint</dimension>
    <dimension dim="3">spin</dimension>
    <field>eigene</field>
    <field>occ</field>
    <set>
     <set comment="spin 1">
      <set comment="kpoint 1">
       <r>    0.2943    1.0000 </r>
       <r>    6.8512    1.0000 </r>
       <r>    6.8512    1.0000 </r>
       <r>    6.8512    1.0000 </r>
       <r>    7.9868    1.0000 </r>
       <r>    7.9868    1.0000 </r>
       <r>   32.8957    0.0000 </r>
       <r>   36.6559    0.0000 </r>
       <r>   36.6559    0.0000 </r>
       <r>   36.6559    0.0000 </r>
       <r>   39.7236    0.0000 </r>
       <r>   39.7237    0.0000 </r>
      </set>
      <set comment="kpoint 2">
       <r>    0.6136    1.0000 </r>
       <r>    6.7739    1.0000 </r>
       <r>    6.9194    1.0000 </r>
       <r>    6.9194    1.0000 </r>
       <r>    7.9606    1.0000 </r>
       <r>    7.9606    1.0000 </r>
       <r>   31.4899    0.0000 </r>
       <r>   34.2466    0.0000 </r>
       <r>   36.0133    0.0000 </r>
       <r>   36.0133    0.0000 </r>
       <r>   40.7095    0.0000 </r>
       <r>   40.7095    0.0000 </r>
      </set>
      <set comment="kpoint 3">
       <r>    1.5304    1.0000 </r>
       <r>    6.6001    1.0000 </r>
       <r>    7.0484    1.0000 </r>
       <r>    7.0484    1.0000 </r>
       <r>    7.9518    1.0000 </r>
       <r>    7.9518    1.0000 </r>
       <r>   27.0271    0.0000 </r>
       <r>   33.5200    0.0000 </r>
       <r>   35.0739    0.0000 </r>
       <r>   35.0739    0.0000 </r>
       <r>   40.7640    0.0000 </r>
       <r>   41.4421    0.0000 </r>
      </set>
      <set comment="kpoint 4">
       <r>    2.8608    1.0000 </r>
       <r>    6.5595    1.0000 </r>
       <r>    7.0567    1.0000 </r>
       <r>    7.0567    1.0000 </r>
       <r>    8.1212    1.0000 </r>
       <r>    8.1212    1.0000 </r>
       <r>   22.4684    0.0000 </r>
       <r>   32.7648    0.0000 </r>
       <r>   34.3609    0.0000 </r>
       <r>   34.3609    0.0000 </r>
       <r>   39.6329    0.0000 </r>
       <r>   39.6329    0.0000 </r>
      </set>
      <set comment="kpoint 5">
       <r>    4.0232    1.0000 </r>
       <r>    6.9543    1.0000 </r>
       <r>    6.9543    1.0000 </r>
       <r>    7.1888    1.0000 </r>
       <r>    8.4106    1.0000 </r>
       <r>    8.4106    1.0000 </r>
       <r>   18.3744    0.0000 </r>
       <r>   31.9475    0.0000 </r>
       <r>   33.9372    0.0000 </r>
       <r>   33.9372    0.0000 </r>
       <r>   37.8263    0.0000 </r>
       <r>   37.8263    0.0000 </r>
      </set>
      <set comment="kpoint 6">
       <r>    4.4362    1.0000 </r>
       <r>    6.8736    1.0000 </r>
       <r>    6.8736    1.0000 </r>
       <r>    8.6183    1.0001 </r>
       <r>    8.6183    1.0001 </r>
       <r>    8.6184    1.0001 </r>
       <r>   15.3591    0.0000 </r>
       <r>   31.4521    0.0000 </r>
       <r>   33.7514    0.0000 </r>
       <r>   33.7514    0.0000 </r>
       <r>   36.8967    0.0000 </r>
       <r>   36.8967    0.0000 </r>
      </set>
      <set comment="kpoint 7">
       <r>    0.7194    1.0000 </r>
       <r>    6.7035    1.0000 </r>
       <r>    6.9701    1.0000 </r>
       <r>    6.9701    1.0000 </r>
       <r>    7.8528    1.0000 </r>
       <r>    8.0409    1.0000 </r>
       <r>   32.0948    0.0000 </r>
       <r>   34.0932    0.0000 </r>
       <r>   34.0932    0.0000 </r>
       <r>   34.9794    0.0000 </r>
       <r>   41.4558    0.0000 </r>
       <r>   42.2383    0.0000 </r>
      </set>
      <set comment="kpoint 8">
       <r>    1.4362    1.0000 </r>
       <r>    6.5269    1.0000 </r>
       <r>    7.1016    1.0000 </r>
       <r>    7.1113    1.0000 </r>
       <r>    7.7530    1.0000 </r>
       <r>    8.0935    1.0000 </r>
       <r>   28.8039    0.0000 </r>
       <r>   32.5528    0.0000 </r>
       <r>   32.6015    0.0000 </r>
       <r>   36.0080    0.0000 </r>
       <r>   39.5052    0.0000 </r>
       <r>   41.8690    0.0000 </r>
      </set>
      <set comment="kpoint 9">
       <r>    2.6438    1.0000 </r>
       <r>    6.3824    1.0000 </r>
       <r>    7.0837    1.0000 </r>
       <r>    7.1832    1.0000 </r>
       <r>    7.9383    1.0000 </r>
       <r>    8.2388    1.0000 </r>
       <r>   24.1678    0.0000 </r>
       <r>   31.6205    0.0000 </r>
       <r>   31.8285    0.0000 </r>
       <r>   35.7381    0.0000 </r>
       <r>   38.9496    0.0000 </r>
       <r>   41.6191    0.0000 </r>
      </set>
      <set comment="kpoint 10">
       <r>    3.9288    1.0000 </r>
       <r>    6.5753    1.0000 </r>
       <r>    6.9130    1.0000 </r>
       <r>    7.1172    1.0000 </r>
       <r>    8.4799    1.0000 </r>
       <r>    8.4915    1.0000 </r>
       <r>   19.8589    0.0000 </r>
       <r>   31.0354    0.0000 </r>
       <r>   31.1858    0.0000 </r>
       <r>   33.8374    0.0000 </r>
       <r>   39.2809    0.0000 </r>
       <r>   41.1104    0.0000 </r>
      </set>
      <set comment="kpoint 11">
       <r>    4.5524    1.0000 </r>
       <r>    6.7588    1.0000 </r>
       <r>    7.0169    1.0000 </r>
       <r>    7.3500    1.0000 </r>
       <r>    8.6428    1.0003 </r>
       <r>    9.4792   -0.0327 </r>
       <r>   16.2990    0.0000 </r>
       <r>   30.1820    0.0000 </r>
       <r>   31.3761    0.0000 </r>
       <r>   32.5942    0.0000 </r>
       <r>   39.1326    0.0000 </r>
       <r>   39.5772    0.0000 </r>
      </set>
      <set comment="kpoint 12">
       <r>    4.6464    1.0000 </r>
       <r>    6.7360    1.0000 </r>
       <r>    6.9746    1.0000 </r>
       <r>    7.6893    1.0000 </r>
       <r>    8.6042    1.0001 </r>
       <r>   10.1777   -0.0000 </r>
       <r>   14.9625    0.0000 </r>
       <r>   29.4062    0.0000 </r>
       <r>   32.2795    0.0000 </r>
       <r>   32.3134    0.0000 </r>
       <r>   38.5252    0.0000 </r>
       <r>   39.2335    0.0000 </r>
      </set>
      <set comment="kpoint 13">
       <r>    4.4385    1.0000 </r>
       <r>    6.8243    1.0000 </r>
       <r>    7.0247    1.0000 </r>
       <r>    7.1503    1.0000 </r>
       <r>    8.3511    1.0000 </r>
       <r>    9.2582    0.2820 </r>
       <r>   17.3674    0.0000 </r>
       <r>   28.9858    0.0000 </r>
       <r>   32.8674    0.0000 </r>
       <r>   33.9181    0.0000 </r>
       <r>   37.9694    0.0000 </r>
       <r>   39.3670    0.0000 </r>
      </set>
      <set comment="kpoint 14">
       <r>    3.5475    1.0000 </r>
       <r>    6.4896    1.0000 </r>
       <r>    6.9761    1.0000 </r>
       <r>    7.1400    1.0000 </r>
       <r>    7.9939    1.0000 </r>
       <r>    8.6214    1.0001 </r>
       <r>   21.2454    0.0000 </r>
       <r>   29.0594    0.0000 </r>
       <r>   34.0849    0.0000 </r>
       <r>   36.2415    0.0000 </r>
       <r>   37.8342    0.0000 </r>
       <r>   39.0461    0.0000 </r>
      </set>
      <set comment="kpoint 15">
       <r>    2.2036    1.0000 </r>
       <r>    6.4545    1.0000 </r>
       <r>    7.0802    1.0000 </r>
       <r>    7.1756    1.0000 </r>
       <r>    7.7618    1.0000 </r>
       <r>    8.2345    1.0000 </r>
       <r>   25.6878    0.0000 </r>
       <r>   29.6153    0.0000 </r>
       <r>   35.5484    0.0000 </r>
       <r>   37.9838    0.0000 </r>
       <r>   38.2593    0.0000 </r>
       <r>   39.0689    0.0000 </r>
      </set>
      <set comment="kpoint 16">
       <r>    1.1330    1.0000 </r>
       <r>    6.6351    1.0000 </r>
       <r>    7.0211    1.0000 </r>
       <r>    7.0296    1.0000 </r>
       <r>    7.8258    1.0000 </r>
       <r>    8.0437    1.0000 </r>
       <r>   29.9590    0.0000 </r>
       <r>   31.0551    0.0000 </r>
       <r>   35.6230    0.0000 </r>
       <r>   37.8384    0.0000 </r>
       <r>   39.0233    0.0000 </r>
       <r>   40.0810    0.0000 </r>
      </set>
      <set comment="kpoint 17">
       <r>    1.9271    1.0000 </r>
       <r>    6.3156    1.0000 </r>
       <r>    7.3091    1.0000 </r>
       <r>    7.3091    1.0000 </r>
       <r>    7.5407    1.0000 </r>
       <r>    8.1874    1.0000 </r>
       <r>   30.6838    0.0000 </r>
       <r>   30.6839    0.0000 </r>
       <r>   30.8150    0.0000 </r>
       <r>   32.1736    0.0000 </r>
       <r>   37.2924    0.0000 </r>
       <r>   45.4388    0.0000 </r>
      </set>
      <set comment="kpoint 18">
       <r>    2.9145    1.0000 </r>
       <r>    6.0972    1.0000 </r>
       <r>    7.1822    1.0000 </r>
       <r>    7.4780    1.0000 </r>
       <r>    7.8374    1.0000 </r>
       <r>    8.3157    1.0000 </r>
       <r>   26.2533    0.0000 </r>
       <r>   29.3534    0.0000 </r>
       <r>   30.4170    0.0000 </r>
       <r>   32.2612    0.0000 </r>
       <r>   36.4847    0.0000 </r>
       <r>   44.8850    0.0000 </r>
      </set>
      <set comment="kpoint 19">
       <r>    4.1130    1.0000 </r>
       <r>    6.0195    1.0000 </r>
       <r>    6.8984    1.0000 </r>
       <r>    7.4786    1.0000 </r>
       <r>    8.5306    1.0000 </r>
       <r>    8.6609    1.0004 </r>
       <r>   21.8190    0.0000 </r>
       <r>   28.6804    0.0000 </r>
       <r>   28.7503    0.0000 </r>
       <r>   31.8042    0.0000 </r>
       <r>   39.1207    0.0000 </r>
       <r>   43.9274    0.0000 </r>
      </set>
      <set comment="kpoint 20">
       <r>    4.8869    1.0000 </r>
       <r>    6.2260    1.0000 </r>
       <r>    6.7895    1.0000 </r>
       <r>    7.3847    1.0000 </r>
       <r>    8.6754    1.0006 </r>
       <r>   10.0870   -0.0000 </r>
       <r>   17.8677    0.0000 </r>
       <r>   27.0192    0.0000 </r>
       <r>   28.7457    0.0000 </r>
       <r>   31.4521    0.0000 </r>
       <r>   42.4499    0.0000 </r>
       <r>   43.2115    0.0000 </r>
      </set>
      <set comment="kpoint 21">
       <r>    5.0904    1.0000 </r>
       <r>    6.3444    1.0000 </r>
       <r>    6.9723    1.0000 </r>
       <r>    7.3056    1.0000 </r>
       <r>    8.6103    1.0001 </r>
       <r>   11.7824   -0.0000 </r>
       <r>   15.1891    0.0000 </r>
       <r>   25.6547    0.0000 </r>
       <r>   29.5940    0.0000 </r>
       <r>   31.5410    0.0000 </r>
       <r>   41.9979    0.0000 </r>
       <r>   42.2945    0.0000 </r>
      </set>
      <set comment="kpoint 22">
       <r>    5.0608    1.0000 </r>
       <r>    6.4749    1.0000 </r>
       <r>    6.7884    1.0000 </r>
       <r>    7.2996    1.0000 </r>
       <r>    8.3263    1.0000 </r>
       <r>   10.8824   -0.0000 </r>
       <r>   16.7812    0.0000 </r>
       <r>   24.8261    0.0000 </r>
       <r>   31.1963    0.0000 </r>
       <r>   32.1615    0.0000 </r>
       <r>   41.2675    0.0000 </r>
       <r>   41.5306    0.0000 </r>
      </set>
      <set comment="kpoint 23">
       <r>    4.5415    1.0000 </r>
       <r>    6.3153    1.0000 </r>
       <r>    6.7141    1.0000 </r>
       <r>    7.3839    1.0000 </r>
       <r>    7.9088    1.0000 </r>
       <r>    9.5389   -0.0198 </r>
       <r>   20.4788    0.0000 </r>
       <r>   24.5973    0.0000 </r>
       <r>   33.3774    0.0000 </r>
       <r>   33.4282    0.0000 </r>
       <r>   40.1241    0.0000 </r>
       <r>   41.0516    0.0000 </r>
      </set>
      <set comment="kpoint 24">
       <r>    3.3411    1.0000 </r>
       <r>    6.2714    1.0000 </r>
       <r>    6.9604    1.0000 </r>
       <r>    7.4665    1.0000 </r>
       <r>    7.5768    1.0000 </r>
       <r>    8.7394    1.0024 </r>
       <r>   24.4636    0.0000 </r>
       <r>   25.2684    0.0000 </r>
       <r>   35.1344    0.0000 </r>
       <r>   36.1411    0.0000 </r>
       <r>   38.2188    0.0000 </r>
       <r>   41.3039    0.0000 </r>
      </set>
      <set comment="kpoint 25">
       <r>    3.5713    1.0000 </r>
       <r>    5.8244    1.0000 </r>
       <r>    7.4496    1.0000 </r>
       <r>    7.8188    1.0000 </r>
       <r>    7.8188    1.0000 </r>
       <r>    8.3827    1.0000 </r>
       <r>   27.6822    0.0000 </r>
       <r>   27.6823    0.0000 </r>
       <r>   28.0842    0.0000 </r>
       <r>   29.8160    0.0000 </r>
       <r>   33.9007    0.0000 </r>
       <r>   49.1700    0.0000 </r>
      </set>
      <set comment="kpoint 26">
       <r>    4.3676    1.0000 </r>
       <r>    5.6436    1.0000 </r>
       <r>    7.3509    1.0000 </r>
       <r>    7.9530    1.0000 </r>
       <r>    8.5484    1.0000 </r>
       <r>    8.6705    1.0005 </r>
       <r>   24.0723    0.0000 </r>
       <r>   25.8588    0.0000 </r>
       <r>   26.6983    0.0000 </r>
       <r>   30.5494    0.0000 </r>
       <r>   34.6830    0.0000 </r>
       <r>   48.8401    0.0000 </r>
      </set>
      <set comment="kpoint 27">
       <r>    4.9898    1.0000 </r>
       <r>    5.6424    1.0000 </r>
       <r>    7.1231    1.0000 </r>
       <r>    7.8938    1.0000 </r>
       <r>    8.7012    1.0011 </r>
       <r>   10.4021   -0.0000 </r>
       <r>   20.0520    0.0000 </r>
       <r>   23.7985    0.0000 </r>
       <r>   26.5260    0.0000 </r>
       <r>   30.7456    0.0000 </r>
       <r>   38.0203    0.0000 </r>
       <r>   47.1647    0.0000 </r>
      </set>
      <set comment="kpoint 28">
       <r>    5.3444    1.0000 </r>
       <r>    5.8007    1.0000 </r>
       <r>    6.9124    1.0000 </r>
       <r>    7.7883    1.0000 </r>
       <r>    8.6377    1.0002 </r>
       <r>   12.8018   -0.0000 </r>
       <r>   16.5347    0.0000 </r>
       <r>   22.1996    0.0000 </r>
       <r>   27.2102    0.0000 </r>
       <r>   30.9031    0.0000 </r>
       <r>   42.2995    0.0000 </r>
       <r>   45.7169    0.0000 </r>
      </set>
      <set comment="kpoint 29">
       <r>    5.5633    1.0000 </r>
       <r>    6.0086    1.0000 </r>
       <r>    6.6275    1.0000 </r>
       <r>    7.7013    1.0000 </r>
       <r>    8.3596    1.0000 </r>
       <r>   13.0442   -0.0000 </r>
       <r>   16.4410    0.0000 </r>
       <r>   21.1874    0.0000 </r>
       <r>   28.6882    0.0000 </r>
       <r>   31.3638    0.0000 </r>
       <r>   44.6444    0.0000 </r>
       <r>   44.6903    0.0000 </r>
      </set>
      <set comment="kpoint 30">
       <r>    5.4073    1.0000 </r>
       <r>    6.2860    1.0000 </r>
       <r>    6.3416    1.0000 </r>
       <r>    7.6173    1.0000 </r>
       <r>    8.0196    1.0000 </r>
       <r>   10.9792   -0.0000 </r>
       <r>   19.5203    0.0000 </r>
       <r>   21.2468    0.0000 </r>
       <r>   30.8228    0.0000 </r>
       <r>   32.2249    0.0000 </r>
       <r>   42.5456    0.0000 </r>
       <r>   43.6323    0.0000 </r>
      </set>
      <set comment="kpoint 31">
       <r>    4.5612    1.0000 </r>
       <r>    5.3946    1.0000 </r>
       <r>    8.3593    1.0000 </r>
       <r>    8.3593    1.0000 </r>
       <r>    8.5607    1.0000 </r>
       <r>    8.7089    1.0013 </r>
       <r>   23.1469    0.0000 </r>
       <r>   25.3886    0.0000 </r>
       <r>   25.3886    0.0000 </r>
       <r>   29.2010    0.0000 </r>
       <r>   32.6965    0.0000 </r>
       <r>   53.1102    0.0000 </r>
      </set>
      <set comment="kpoint 32">
       <r>    4.7730    1.0000 </r>
       <r>    5.3081    1.0000 </r>
       <r>    8.0821    1.0000 </r>
       <r>    8.3935    1.0000 </r>
       <r>    8.7102    1.0013 </r>
       <r>   10.5561   -0.0000 </r>
       <r>   21.0086    0.0000 </r>
       <r>   22.6501    0.0000 </r>
       <r>   24.9177    0.0000 </r>
       <r>   29.9535    0.0000 </r>
       <r>   33.9124    0.0000 </r>
       <r>   51.1527    0.0000 </r>
      </set>
      <set comment="kpoint 33">
       <r>    5.0595    1.0000 </r>
       <r>    5.4113    1.0000 </r>
       <r>    7.5895    1.0000 </r>
       <r>    8.2825    1.0000 </r>
       <r>    8.6827    1.0007 </r>
       <r>   12.9711   -0.0000 </r>
       <r>   18.8706    0.0000 </r>
       <r>   19.7216    0.0000 </r>
       <r>   25.3695    0.0000 </r>
       <r>   30.4029    0.0000 </r>
       <r>   37.5141    0.0000 </r>
       <r>   49.2835    0.0000 </r>
      </set>
      <set comment="kpoint 34">
       <r>    5.4174    1.0000 </r>
       <r>    5.6524    1.0000 </r>
       <r>    7.0201    1.0000 </r>
       <r>    8.0735    1.0000 </r>
       <r>    8.4880    1.0000 </r>
       <r>   15.3718    0.0000 </r>
       <r>   15.7462    0.0000 </r>
       <r>   19.2146    0.0000 </r>
       <r>   26.6840    0.0000 </r>
       <r>   30.7691    0.0000 </r>
       <r>   42.1392    0.0000 </r>
       <r>   47.3004    0.0000 </r>
      </set>
      <set comment="kpoint 35">
       <r>    4.6577    1.0000 </r>
       <r>    5.1477    1.0000 </r>
       <r>    8.6683    1.0005 </r>
       <r>    8.7304    1.0020 </r>
       <r>    8.7304    1.0020 </r>
       <r>   11.1107   -0.0000 </r>
       <r>   19.1191    0.0000 </r>
       <r>   24.1237    0.0000 </r>
       <r>   24.1238    0.0000 </r>
       <r>   28.9230    0.0000 </r>
       <r>   32.3347    0.0000 </r>
       <r>   53.5140    0.0000 </r>
      </set>
      <set comment="kpoint 36">
       <r>    4.7593    1.0000 </r>
       <r>    5.1842    1.0000 </r>
       <r>    8.3800    1.0000 </r>
       <r>    8.5944    1.0001 </r>
       <r>    8.7472    1.0028 </r>
       <r>   12.2902   -0.0000 </r>
       <r>   18.4174    0.0000 </r>
       <r>   22.0687    0.0000 </r>
       <r>   24.2822    0.0000 </r>
       <r>   29.7567    0.0000 </r>
       <r>   33.7019    0.0000 </r>
       <r>   52.1565    0.0000 </r>
      </set>
      <set comment="kpoint 37">
       <r>    2.3034    1.0000 </r>
       <r>    6.3239    1.0000 </r>
       <r>    7.1221    1.0000 </r>
       <r>    7.3210    1.0000 </r>
       <r>    7.6851    1.0000 </r>
       <r>    8.2709    1.0000 </r>
       <r>   27.3538    0.0000 </r>
       <r>   28.0691    0.0000 </r>
       <r>   34.1488    0.0000 </r>
       <r>   34.6264    0.0000 </r>
       <r>   38.6070    0.0000 </r>
       <r>   41.7909    0.0000 </r>
      </set>
      <set comment="kpoint 38">
       <r>    3.5500    1.0000 </r>
       <r>    6.1986    1.0000 </r>
       <r>    6.9255    1.0000 </r>
       <r>    7.4088    1.0000 </r>
       <r>    7.9149    1.0000 </r>
       <r>    8.6961    1.0010 </r>
       <r>   23.0882    0.0000 </r>
       <r>   27.0465    0.0000 </r>
       <r>   32.0648    0.0000 </r>
       <r>   35.1428    0.0000 </r>
       <r>   39.1892    0.0000 </r>
       <r>   40.9556    0.0000 </r>
      </set>
      <set comment="kpoint 39">
       <r>    4.6095    1.0000 </r>
       <r>    6.4189    1.0000 </r>
       <r>    6.7114    1.0000 </r>
       <r>    7.3121    1.0000 </r>
       <r>    8.3333    1.0000 </r>
       <r>    9.5215   -0.0238 </r>
       <r>   18.9455    0.0000 </r>
       <r>   26.8521    0.0000 </r>
       <r>   30.1058    0.0000 </r>
       <r>   34.4674    0.0000 </r>
       <r>   39.0276    0.0000 </r>
       <r>   42.6017    0.0000 </r>
      </set>
      <set comment="kpoint 40">
       <r>    4.9469    1.0000 </r>
       <r>    6.4915    1.0000 </r>
       <r>    7.0217    1.0000 </r>
       <r>    7.2254    1.0000 </r>
       <r>    8.5652    1.0000 </r>
       <r>   10.9709   -0.0000 </r>
       <r>   15.6867    0.0000 </r>
       <r>   27.1603    0.0000 </r>
       <r>   28.6520    0.0000 </r>
       <r>   33.9270    0.0000 </r>
       <r>   38.7151    0.0000 </r>
       <r>   43.1013    0.0000 </r>
      </set>
      <set comment="kpoint 41">
       <r>    3.8837    1.0000 </r>
       <r>    5.8962    1.0000 </r>
       <r>    7.0010    1.0000 </r>
       <r>    7.8161    1.0000 </r>
       <r>    8.0055    1.0000 </r>
       <r>    8.6847    1.0007 </r>
       <r>   25.0467    0.0000 </r>
       <r>   25.5892    0.0000 </r>
       <r>   28.8399    0.0000 </r>
       <r>   32.9963    0.0000 </r>
       <r>   36.1665    0.0000 </r>
       <r>   44.5291    0.0000 </r>
      </set>
      <set comment="kpoint 42">
       <r>    4.8370    1.0000 </r>
       <r>    5.8548    1.0000 </r>
       <r>    6.7488    1.0000 </r>
       <r>    7.8056    1.0000 </r>
       <r>    8.3836    1.0000 </r>
       <r>    9.7177   -0.0009 </r>
       <r>   21.0233    0.0000 </r>
       <r>   24.9497    0.0000 </r>
       <r>   26.6669    0.0000 </r>
       <r>   33.6051    0.0000 </r>
       <r>   38.4494    0.0000 </r>
       <r>   43.1979    0.0000 </r>
      </set>
      <set comment="kpoint 43">
       <r>    5.3117    1.0000 </r>
       <r>    5.9991    1.0000 </r>
       <r>    6.6606    1.0000 </r>
       <r>    7.6677    1.0000 </r>
       <r>    8.5850    1.0001 </r>
       <r>   11.6059   -0.0000 </r>
       <r>   17.2707    0.0000 </r>
       <r>   24.5651    0.0000 </r>
       <r>   25.5446    0.0000 </r>
       <r>   33.7088    0.0000 </r>
       <r>   40.6772    0.0000 </r>
       <r>   43.7894    0.0000 </r>
      </set>
      <set comment="kpoint 44">
       <r>    5.4640    1.0000 </r>
       <r>    6.0632    1.0000 </r>
       <r>    6.6738    1.0000 </r>
       <r>    7.5773    1.0000 </r>
       <r>    8.5226    1.0000 </r>
       <r>   12.9858   -0.0000 </r>
       <r>   15.4933    0.0000 </r>
       <r>   23.4226    0.0000 </r>
       <r>   26.3638    0.0000 </r>
       <r>   34.1647    0.0000 </r>
       <r>   40.2377    0.0000 </r>
       <r>   46.9055    0.0000 </r>
      </set>
      <set comment="kpoint 45">
       <r>    5.3731    1.0000 </r>
       <r>    6.2157    1.0000 </r>
       <r>    6.3853    1.0000 </r>
       <r>    7.6311    1.0000 </r>
       <r>    8.2462    1.0000 </r>
       <r>   11.0902   -0.0000 </r>
       <r>   18.4515    0.0000 </r>
       <r>   22.7719    0.0000 </r>
       <r>   27.8673    0.0000 </r>
       <r>   35.2227    0.0000 </r>
       <r>   39.3005    0.0000 </r>
       <r>   44.9226    0.0000 </r>
      </set>
      <set comment="kpoint 46">
       <r>    4.6649    1.0000 </r>
       <r>    6.0812    1.0000 </r>
       <r>    6.6243    1.0000 </r>
       <r>    7.7389    1.0000 </r>
       <r>    7.8494    1.0000 </r>
       <r>    9.5985   -0.0088 </r>
       <r>   22.0649    0.0000 </r>
       <r>   23.1020    0.0000 </r>
       <r>   29.8544    0.0000 </r>
       <r>   36.8738    0.0000 </r>
       <r>   37.6259    0.0000 </r>
       <r>   42.4209    0.0000 </r>
      </set>
      <set comment="kpoint 47">
       <r>    4.8185    1.0000 </r>
       <r>    5.5108    1.0000 </r>
       <r>    7.3721    1.0000 </r>
       <r>    8.3569    1.0000 </r>
       <r>    8.4198    1.0000 </r>
       <r>    9.8820   -0.0000 </r>
       <r>   23.2015    0.0000 </r>
       <r>   23.2320    0.0000 </r>
       <r>   24.1260    0.0000 </r>
       <r>   31.9054    0.0000 </r>
       <r>   34.9948    0.0000 </r>
       <r>   47.2287    0.0000 </r>
      </set>
      <set comment="kpoint 48">
       <r>    5.1751    1.0000 </r>
       <r>    5.5651    1.0000 </r>
       <r>    7.1292    1.0000 </r>
       <r>    8.1846    1.0000 </r>
       <r>    8.6343    1.0002 </r>
       <r>   11.9645   -0.0000 </r>
       <r>   19.6079    0.0000 </r>
       <r>   21.6005    0.0000 </r>
       <r>   23.7438    0.0000 </r>
       <r>   32.8335    0.0000 </r>
       <r>   37.8929    0.0000 </r>
       <r>   45.5299    0.0000 </r>
      </set>
      <set comment="kpoint 49">
       <r>    5.4986    1.0000 </r>
       <r>    5.7297    1.0000 </r>
       <r>    6.8001    1.0000 </r>
       <r>    7.9757    1.0000 </r>
       <r>    8.5933    1.0001 </r>
       <r>   14.5917   -0.0000 </r>
       <r>   16.2873    0.0000 </r>
       <r>   20.2934    0.0000 </r>
       <r>   24.5410    0.0000 </r>
       <r>   33.3697    0.0000 </r>
       <r>   42.0872    0.0000 </r>
       <r>   44.0274    0.0000 </r>
      </set>
      <set comment="kpoint 50">
       <r>    5.7959    1.0000 </r>
       <r>    5.8870    1.0000 </r>
       <r>    6.4020    1.0000 </r>
       <r>    7.8368    1.0000 </r>
       <r>    8.3762    1.0000 </r>
       <r>   13.2599   -0.0000 </r>
       <r>   17.5489    0.0000 </r>
       <r>   20.0701    0.0000 </r>
       <r>   25.9735    0.0000 </r>
       <r>   34.2093    0.0000 </r>
       <r>   41.7684    0.0000 </r>
       <r>   46.1098    0.0000 </r>
      </set>
      <set comment="kpoint 51">
       <r>    4.8745    1.0000 </r>
       <r>    5.2876    1.0000 </r>
       <r>    7.9393    1.0000 </r>
       <r>    8.5136    1.0000 </r>
       <r>    8.7289    1.0020 </r>
       <r>   12.1870   -0.0000 </r>
       <r>   19.2920    0.0000 </r>
       <r>   22.1507    0.0000 </r>
       <r>   22.8493    0.0000 </r>
       <r>   31.3842    0.0000 </r>
       <r>   34.5579    0.0000 </r>
       <r>   49.5733    0.0000 </r>
      </set>
      <set comment="kpoint 52">
       <r>    5.1338    1.0000 </r>
       <r>    5.4619    1.0000 </r>
       <r>    7.4112    1.0000 </r>
       <r>    8.2863    1.0000 </r>
       <r>    8.7263    1.0019 </r>
       <r>   14.0063   -0.0000 </r>
       <r>   18.4998    0.0000 </r>
       <r>   19.3339    0.0000 </r>
       <r>   23.2289    0.0000 </r>
       <r>   32.5903    0.0000 </r>
       <r>   37.7208    0.0000 </r>
       <r>   47.0444    0.0000 </r>
      </set>
      <set comment="kpoint 53">
       <r>    5.4280    1.0000 </r>
       <r>    5.8561    1.0000 </r>
       <r>    6.4813    1.0000 </r>
       <r>    8.0504    1.0000 </r>
       <r>    8.3538    1.0000 </r>
       <r>   11.3977   -0.0000 </r>
       <r>   20.2231    0.0000 </r>
       <r>   21.5856    0.0000 </r>
       <r>   24.5039    0.0000 </r>
       <r>   36.4465    0.0000 </r>
       <r>   38.1763    0.0000 </r>
       <r>   42.5774    0.0000 </r>
      </set>
      <set comment="kpoint 54">
       <r>    5.6796    1.0000 </r>
       <r>    5.9359    1.0000 </r>
       <r>    6.3709    1.0000 </r>
       <r>    7.8860    1.0000 </r>
       <r>    8.5756    1.0000 </r>
       <r>   13.7544   -0.0000 </r>
       <r>   17.0777    0.0000 </r>
       <r>   21.5948    0.0000 </r>
       <r>   22.8809    0.0000 </r>
       <r>   37.0094    0.0000 </r>
       <r>   39.2460    0.0000 </r>
       <r>   43.9555    0.0000 </r>
      </set>
      <set comment="kpoint 55">
       <r>    5.3626    1.0000 </r>
       <r>    5.7147    1.0000 </r>
       <r>    6.8438    1.0000 </r>
       <r>    8.1076    1.0000 </r>
       <r>    8.7280    1.0019 </r>
       <r>   14.1621   -0.0000 </r>
       <r>   19.1863    0.0000 </r>
       <r>   19.8141    0.0000 </r>
       <r>   21.0508    0.0000 </r>
       <r>   35.8437    0.0000 </r>
       <r>   38.9495    0.0000 </r>
       <r>   43.6090    0.0000 </r>
      </set>
      <set comment="kpoint 56">
       <r>    5.5477    1.0000 </r>
       <r>    5.9972    1.0000 </r>
       <r>    6.4324    1.0000 </r>
       <r>    7.9378    1.0000 </r>
       <r>    8.7256    1.0018 </r>
       <r>   16.4024    0.0000 </r>
       <r>   16.4305    0.0000 </r>
       <r>   19.4374    0.0000 </r>
       <r>   21.3936    0.0000 </r>
       <r>   37.2948    0.0000 </r>
       <r>   41.1059    0.0000 </r>
       <r>   42.2786    0.0000 </r>
      </set>
     </set>
     <set comment="spin 2">
      <set comment="kpoint 1">
       <r>    0.2469    1.0000 </r>
       <r>    7.5249    1.0000 </r>
       <r>    7.5249    1.0000 </r>
       <r>    7.5249    1.0000 </r>
       <r>    8.5629    1.0000 </r>
       <r>    8.5629    1.0000 </r>
       <r>   32.7285    0.0000 </r>
       <r>   36.6264    0.0000 </r>
       <r>   36.6264    0.0000 </r>
       <r>   36.6264    0.0000 </r>
       <r>   39.7804    0.0000 </r>
       <r>   39.7804    0.0000 </r>
      </set>
      <set comment="kpoint 2">
       <r>    0.5666    1.0000 </r>
       <r>    7.4374    1.0000 </r>
       <r>    7.5951    1.0000 </r>
       <r>    7.5951    1.0000 </r>
       <r>    8.5352    1.0000 </r>
       <r>    8.5352    1.0000 </r>
       <r>   31.4406    0.0000 </r>
       <r>   34.1621    0.0000 </r>
       <r>   36.0211    0.0000 </r>
       <r>   36.0211    0.0000 </r>
       <r>   40.7177    0.0000 </r>
       <r>   40.7177    0.0000 </r>
      </set>
      <set comment="kpoint 3">
       <r>    1.4887    1.0000 </r>
       <r>    7.2310    1.0000 </r>
       <r>    7.7147    1.0000 </r>
       <r>    7.7147    1.0000 </r>
       <r>    8.5388    1.0000 </r>
       <r>    8.5388    1.0000 </r>
       <r>   27.0875    0.0000 </r>
       <r>   33.3876    0.0000 </r>
       <r>   35.1191    0.0000 </r>
       <r>   35.1191    0.0000 </r>
       <r>   40.6967    0.0000 </r>
       <r>   41.4088    0.0000 </r>
      </set>
      <set comment="kpoint 4">
       <r>    2.8576    1.0000 </r>
       <r>    7.1069    1.0000 </r>
       <r>    7.6827    1.0000 </r>
       <r>    7.6827    1.0000 </r>
       <r>    8.7550    1.0033 </r>
       <r>    8.7550    1.0033 </r>
       <r>   22.5911    0.0000 </r>
       <r>   32.6250    0.0000 </r>
       <r>   34.4283    0.0000 </r>
       <r>   34.4283    0.0000 </r>
       <r>   39.6386    0.0000 </r>
       <r>   39.6386    0.0000 </r>
      </set>
      <set comment="kpoint 5">
       <r>    4.1941    1.0000 </r>
       <r>    7.4900    1.0000 </r>
       <r>    7.5485    1.0000 </r>
       <r>    7.5485    1.0000 </r>
       <r>    9.0850    0.9190 </r>
       <r>    9.0850    0.9190 </r>
       <r>   18.5766    0.0000 </r>
       <r>   31.7982    0.0000 </r>
       <r>   34.0104    0.0000 </r>
       <r>   34.0104    0.0000 </r>
       <r>   37.8424    0.0000 </r>
       <r>   37.8425    0.0000 </r>
      </set>
      <set comment="kpoint 6">
       <r>    4.7960    1.0000 </r>
       <r>    7.4538    1.0000 </r>
       <r>    7.4538    1.0000 </r>
       <r>    8.6064    1.0001 </r>
       <r>    9.3131    0.1075 </r>
       <r>    9.3131    0.1075 </r>
       <r>   15.6882    0.0000 </r>
       <r>   31.2961    0.0000 </r>
       <r>   33.8212    0.0000 </r>
       <r>   33.8212    0.0000 </r>
       <r>   36.9149    0.0000 </r>
       <r>   36.9150    0.0000 </r>
      </set>
      <set comment="kpoint 7">
       <r>    0.6724    1.0000 </r>
       <r>    7.3653    1.0000 </r>
       <r>    7.6475    1.0000 </r>
       <r>    7.6475    1.0000 </r>
       <r>    8.4200    1.0000 </r>
       <r>    8.6189    1.0001 </r>
       <r>   31.9913    0.0000 </r>
       <r>   34.1282    0.0000 </r>
       <r>   34.1282    0.0000 </r>
       <r>   34.9118    0.0000 </r>
       <r>   41.4617    0.0000 </r>
       <r>   42.2051    0.0000 </r>
      </set>
      <set comment="kpoint 8">
       <r>    1.3923    1.0000 </r>
       <r>    7.1689    1.0000 </r>
       <r>    7.7720    1.0000 </r>
       <r>    7.7871    1.0000 </r>
       <r>    8.3211    1.0000 </r>
       <r>    8.6797    1.0007 </r>
       <r>   28.8412    0.0000 </r>
       <r>   32.4795    0.0000 </r>
       <r>   32.6545    0.0000 </r>
       <r>   35.9493    0.0000 </r>
       <r>   39.6073    0.0000 </r>
       <r>   41.9263    0.0000 </r>
      </set>
      <set comment="kpoint 9">
       <r>    2.6216    1.0000 </r>
       <r>    6.9782    1.0000 </r>
       <r>    7.6952    1.0000 </r>
       <r>    7.8295    1.0000 </r>
       <r>    8.5555    1.0000 </r>
       <r>    8.8621    1.0180 </r>
       <r>   24.2654    0.0000 </r>
       <r>   31.6826    0.0000 </r>
       <r>   31.7487    0.0000 </r>
       <r>   35.7818    0.0000 </r>
       <r>   38.9369    0.0000 </r>
       <r>   41.6539    0.0000 </r>
      </set>
      <set comment="kpoint 10">
       <r>    4.0263    1.0000 </r>
       <r>    7.0336    1.0000 </r>
       <r>    7.4985    1.0000 </r>
       <r>    7.7275    1.0000 </r>
       <r>    9.1046    0.8701 </r>
       <r>    9.1472    0.7320 </r>
       <r>   20.0220    0.0000 </r>
       <r>   30.9463    0.0000 </r>
       <r>   31.2486    0.0000 </r>
       <r>   33.9198    0.0000 </r>
       <r>   39.2438    0.0000 </r>
       <r>   41.1126    0.0000 </r>
      </set>
      <set comment="kpoint 11">
       <r>    4.8803    1.0000 </r>
       <r>    7.2715    1.0000 </r>
       <r>    7.6055    1.0000 </r>
       <r>    7.7319    1.0000 </r>
       <r>    9.3364    0.0552 </r>
       <r>    9.9221   -0.0000 </r>
       <r>   16.5658    0.0000 </r>
       <r>   30.1128    0.0000 </r>
       <r>   31.4366    0.0000 </r>
       <r>   32.6425    0.0000 </r>
       <r>   39.1104    0.0000 </r>
       <r>   39.5946    0.0000 </r>
      </set>
      <set comment="kpoint 12">
       <r>    5.0375    1.0000 </r>
       <r>    7.2693    1.0000 </r>
       <r>    7.5549    1.0000 </r>
       <r>    8.0617    1.0000 </r>
       <r>    9.3027    0.1351 </r>
       <r>   10.4718   -0.0000 </r>
       <r>   15.3130    0.0000 </r>
       <r>   29.3818    0.0000 </r>
       <r>   32.3017    0.0000 </r>
       <r>   32.3408    0.0000 </r>
       <r>   38.5508    0.0000 </r>
       <r>   39.2197    0.0000 </r>
      </set>
      <set comment="kpoint 13">
       <r>    4.6986    1.0000 </r>
       <r>    7.3520    1.0000 </r>
       <r>    7.5221    1.0000 </r>
       <r>    7.6094    1.0000 </r>
       <r>    9.0348    1.0015 </r>
       <r>    9.8124   -0.0001 </r>
       <r>   17.5940    0.0000 </r>
       <r>   28.9940    0.0000 </r>
       <r>   32.8184    0.0000 </r>
       <r>   33.9865    0.0000 </r>
       <r>   37.9946    0.0000 </r>
       <r>   39.3519    0.0000 </r>
      </set>
      <set comment="kpoint 14">
       <r>    3.5840    1.0000 </r>
       <r>    7.0127    1.0000 </r>
       <r>    7.5675    1.0000 </r>
       <r>    7.7484    1.0000 </r>
       <r>    8.6421    1.0003 </r>
       <r>    9.2604    0.2738 </r>
       <r>   21.3853    0.0000 </r>
       <r>   29.0833    0.0000 </r>
       <r>   34.0201    0.0000 </r>
       <r>   36.3216    0.0000 </r>
       <r>   37.8477    0.0000 </r>
       <r>   39.0079    0.0000 </r>
      </set>
      <set comment="kpoint 15">
       <r>    2.1695    1.0000 </r>
       <r>    7.0710    1.0000 </r>
       <r>    7.7120    1.0000 </r>
       <r>    7.8430    1.0000 </r>
       <r>    8.3437    1.0000 </r>
       <r>    8.8522    1.0159 </r>
       <r>   25.7676    0.0000 </r>
       <r>   29.6383    0.0000 </r>
       <r>   35.4726    0.0000 </r>
       <r>   37.9846    0.0000 </r>
       <r>   38.2002    0.0000 </r>
       <r>   39.1362    0.0000 </r>
      </set>
      <set comment="kpoint 16">
       <r>    1.0876    1.0000 </r>
       <r>    7.2849    1.0000 </r>
       <r>    7.6973    1.0000 </r>
       <r>    7.7033    1.0000 </r>
       <r>    8.3915    1.0000 </r>
       <r>    8.6290    1.0002 </r>
       <r>   29.9680    0.0000 </r>
       <r>   31.0688    0.0000 </r>
       <r>   35.5449    0.0000 </r>
       <r>   37.8050    0.0000 </r>
       <r>   38.9722    0.0000 </r>
       <r>   40.1274    0.0000 </r>
      </set>
      <set comment="kpoint 17">
       <r>    1.8862    1.0000 </r>
       <r>    6.9475    1.0000 </r>
       <r>    7.9986    1.0000 </r>
       <r>    7.9986    1.0000 </r>
       <r>    8.0768    1.0000 </r>
       <r>    8.7707    1.0045 </r>
       <r>   30.7404    0.0000 </r>
       <r>   30.7404    0.0000 </r>
       <r>   30.7974    0.0000 </r>
       <r>   32.0929    0.0000 </r>
       <r>   37.4819    0.0000 </r>
       <r>   45.3928    0.0000 </r>
      </set>
      <set comment="kpoint 18">
       <r>    2.8925    1.0000 </r>
       <r>    6.7065    1.0000 </r>
       <r>    7.7482    1.0000 </r>
       <r>    8.1550    1.0000 </r>
       <r>    8.4723    1.0000 </r>
       <r>    8.9235    1.0316 </r>
       <r>   26.3234    0.0000 </r>
       <r>   29.4097    0.0000 </r>
       <r>   30.3804    0.0000 </r>
       <r>   32.2901    0.0000 </r>
       <r>   36.6221    0.0000 </r>
       <r>   44.8088    0.0000 </r>
      </set>
      <set comment="kpoint 19">
       <r>    4.1745    1.0000 </r>
       <r>    6.5743    1.0000 </r>
       <r>    7.4487    1.0000 </r>
       <r>    8.1147    1.0000 </r>
       <r>    9.1893    0.5645 </r>
       <r>    9.2470    0.3249 </r>
       <r>   21.9378    0.0000 </r>
       <r>   28.7340    0.0000 </r>
       <r>   28.7521    0.0000 </r>
       <r>   31.8618    0.0000 </r>
       <r>   39.1850    0.0000 </r>
       <r>   43.8569    0.0000 </r>
      </set>
      <set comment="kpoint 20">
       <r>    5.1771    1.0000 </r>
       <r>    6.6461    1.0000 </r>
       <r>    7.3437    1.0000 </r>
       <r>    7.9901    1.0000 </r>
       <r>    9.3687    0.0049 </r>
       <r>   10.5214   -0.0000 </r>
       <r>   18.0558    0.0000 </r>
       <r>   27.0550    0.0000 </r>
       <r>   28.7969    0.0000 </r>
       <r>   31.4827    0.0000 </r>
       <r>   42.4408    0.0000 </r>
       <r>   43.2104    0.0000 </r>
      </set>
      <set comment="kpoint 21">
       <r>    5.5173    1.0000 </r>
       <r>    6.7490    1.0000 </r>
       <r>    7.4897    1.0000 </r>
       <r>    7.8924    1.0000 </r>
       <r>    9.3159    0.1005 </r>
       <r>   12.0285   -0.0000 </r>
       <r>   15.4954    0.0000 </r>
       <r>   25.7103    0.0000 </r>
       <r>   29.6482    0.0000 </r>
       <r>   31.5394    0.0000 </r>
       <r>   42.0071    0.0000 </r>
       <r>   42.2454    0.0000 </r>
      </set>
      <set comment="kpoint 22">
       <r>    5.4170    1.0000 </r>
       <r>    6.9051    1.0000 </r>
       <r>    7.2892    1.0000 </r>
       <r>    7.8777    1.0000 </r>
       <r>    9.0263    1.0099 </r>
       <r>   11.2757   -0.0000 </r>
       <r>   17.0112    0.0000 </r>
       <r>   24.8941    0.0000 </r>
       <r>   31.2578    0.0000 </r>
       <r>   32.1345    0.0000 </r>
       <r>   41.2842    0.0000 </r>
       <r>   41.4718    0.0000 </r>
      </set>
      <set comment="kpoint 23">
       <r>    4.6541    1.0000 </r>
       <r>    6.8476    1.0000 </r>
       <r>    7.2522    1.0000 </r>
       <r>    7.9619    1.0000 </r>
       <r>    8.5940    1.0001 </r>
       <r>   10.1187   -0.0000 </r>
       <r>   20.6265    0.0000 </r>
       <r>   24.6727    0.0000 </r>
       <r>   33.3361    0.0000 </r>
       <r>   33.4938    0.0000 </r>
       <r>   40.0400    0.0000 </r>
       <r>   41.0753    0.0000 </r>
      </set>
      <set comment="kpoint 24">
       <r>    3.3342    1.0000 </r>
       <r>    6.8710    1.0000 </r>
       <r>    7.5403    1.0000 </r>
       <r>    8.1244    1.0000 </r>
       <r>    8.1711    1.0000 </r>
       <r>    9.3735   -0.0006 </r>
       <r>   24.5750    0.0000 </r>
       <r>   25.3251    0.0000 </r>
       <r>   35.0871    0.0000 </r>
       <r>   36.1925    0.0000 </r>
       <r>   38.1203    0.0000 </r>
       <r>   41.3214    0.0000 </r>
      </set>
      <set comment="kpoint 25">
       <r>    3.5842    1.0000 </r>
       <r>    6.4216    1.0000 </r>
       <r>    7.8932    1.0000 </r>
       <r>    8.5299    1.0000 </r>
       <r>    8.5299    1.0000 </r>
       <r>    8.9733    1.0347 </r>
       <r>   27.7296    0.0000 </r>
       <r>   27.7297    0.0000 </r>
       <r>   28.0920    0.0000 </r>
       <r>   29.8665    0.0000 </r>
       <r>   34.0447    0.0000 </r>
       <r>   49.0758    0.0000 </r>
      </set>
      <set comment="kpoint 26">
       <r>    4.4782    1.0000 </r>
       <r>    6.2208    1.0000 </r>
       <r>    7.8257    1.0000 </r>
       <r>    8.6274    1.0002 </r>
       <r>    9.1915    0.5554 </r>
       <r>    9.2451    0.3325 </r>
       <r>   24.1426    0.0000 </r>
       <r>   25.9235    0.0000 </r>
       <r>   26.7369    0.0000 </r>
       <r>   30.6071    0.0000 </r>
       <r>   34.7808    0.0000 </r>
       <r>   48.8188    0.0000 </r>
      </set>
      <set comment="kpoint 27">
       <r>    5.2565    1.0000 </r>
       <r>    6.1709    1.0000 </r>
       <r>    7.6328    1.0000 </r>
       <r>    8.5221    1.0000 </r>
       <r>    9.3960   -0.0201 </r>
       <r>   10.8005   -0.0000 </r>
       <r>   20.1686    0.0000 </r>
       <r>   23.8884    0.0000 </r>
       <r>   26.5606    0.0000 </r>
       <r>   30.8021    0.0000 </r>
       <r>   38.0828    0.0000 </r>
       <r>   47.1429    0.0000 </r>
      </set>
      <set comment="kpoint 28">
       <r>    5.7733    1.0000 </r>
       <r>    6.2223    1.0000 </r>
       <r>    7.4522    1.0000 </r>
       <r>    8.3851    1.0000 </r>
       <r>    9.3560    0.0217 </r>
       <r>   13.0571   -0.0000 </r>
       <r>   16.7242    0.0000 </r>
       <r>   22.3069    0.0000 </r>
       <r>   27.2502    0.0000 </r>
       <r>   30.9410    0.0000 </r>
       <r>   42.3420    0.0000 </r>
       <r>   45.7009    0.0000 </r>
      </set>
      <set comment="kpoint 29">
       <r>    6.0257    1.0000 </r>
       <r>    6.3797    1.0000 </r>
       <r>    7.1728    1.0000 </r>
       <r>    8.2699    1.0000 </r>
       <r>    9.0880    0.9122 </r>
       <r>   13.3086   -0.0000 </r>
       <r>   16.6497    0.0000 </r>
       <r>   21.3039    0.0000 </r>
       <r>   28.7402    0.0000 </r>
       <r>   31.3756    0.0000 </r>
       <r>   44.6061    0.0000 </r>
       <r>   44.6291    0.0000 </r>
      </set>
      <set comment="kpoint 30">
       <r>    5.6640    1.0000 </r>
       <r>    6.8078    1.0000 </r>
       <r>    6.8430    1.0000 </r>
       <r>    8.1618    1.0000 </r>
       <r>    8.7523    1.0031 </r>
       <r>   11.4180   -0.0000 </r>
       <r>   19.6795    0.0000 </r>
       <r>   21.3540    0.0000 </r>
       <r>   30.8854    0.0000 </r>
       <r>   32.2097    0.0000 </r>
       <r>   42.4448    0.0000 </r>
       <r>   43.6157    0.0000 </r>
      </set>
      <set comment="kpoint 31">
       <r>    4.7758    1.0000 </r>
       <r>    5.9630    1.0000 </r>
       <r>    8.8956    1.0256 </r>
       <r>    9.1011    0.8794 </r>
       <r>    9.1011    0.8794 </r>
       <r>    9.1584    0.6896 </r>
       <r>   23.2486    0.0000 </r>
       <r>   25.4108    0.0000 </r>
       <r>   25.4108    0.0000 </r>
       <r>   29.2964    0.0000 </r>
       <r>   32.8106    0.0000 </r>
       <r>   53.0984    0.0000 </r>
      </set>
      <set comment="kpoint 32">
       <r>    5.0690    1.0000 </r>
       <r>    5.8638    1.0000 </r>
       <r>    8.6595    1.0004 </r>
       <r>    9.0376    0.9984 </r>
       <r>    9.4169   -0.0304 </r>
       <r>   10.8053   -0.0000 </r>
       <r>   21.1472    0.0000 </r>
       <r>   22.7072    0.0000 </r>
       <r>   24.9311    0.0000 </r>
       <r>   30.0354    0.0000 </r>
       <r>   34.0065    0.0000 </r>
       <r>   51.1198    0.0000 </r>
      </set>
      <set comment="kpoint 33">
       <r>    5.4143    1.0000 </r>
       <r>    5.9416    1.0000 </r>
       <r>    8.1530    1.0000 </r>
       <r>    8.8823    1.0225 </r>
       <r>    9.4264   -0.0331 </r>
       <r>   13.1614   -0.0000 </r>
       <r>   18.9878    0.0000 </r>
       <r>   19.8775    0.0000 </r>
       <r>   25.3886    0.0000 </r>
       <r>   30.4733    0.0000 </r>
       <r>   37.5813    0.0000 </r>
       <r>   49.2451    0.0000 </r>
      </set>
      <set comment="kpoint 34">
       <r>    5.8426    1.0000 </r>
       <r>    6.1117    1.0000 </r>
       <r>    7.5691    1.0000 </r>
       <r>    8.6386    1.0002 </r>
       <r>    9.2448    0.3335 </r>
       <r>   15.5401    0.0000 </r>
       <r>   15.9159    0.0000 </r>
       <r>   19.3875    0.0000 </r>
       <r>   26.7194    0.0000 </r>
       <r>   30.8156    0.0000 </r>
       <r>   42.1921    0.0000 </r>
       <r>   47.2615    0.0000 </r>
      </set>
      <set comment="kpoint 35">
       <r>    4.9808    1.0000 </r>
       <r>    5.7002    1.0000 </r>
       <r>    9.2704    0.2377 </r>
       <r>    9.4979   -0.0291 </r>
       <r>    9.4979   -0.0291 </r>
       <r>   11.0999   -0.0000 </r>
       <r>   19.3168    0.0000 </r>
       <r>   24.1219    0.0000 </r>
       <r>   24.1220    0.0000 </r>
       <r>   29.0405    0.0000 </r>
       <r>   32.4485    0.0000 </r>
       <r>   53.4847    0.0000 </r>
      </set>
      <set comment="kpoint 36">
       <r>    5.0971    1.0000 </r>
       <r>    5.7328    1.0000 </r>
       <r>    9.0381    0.9979 </r>
       <r>    9.1910    0.5575 </r>
       <r>    9.5172   -0.0248 </r>
       <r>   12.3508   -0.0000 </r>
       <r>   18.6409    0.0000 </r>
       <r>   22.1116    0.0000 </r>
       <r>   24.2830    0.0000 </r>
       <r>   29.8493    0.0000 </r>
       <r>   33.7989    0.0000 </r>
       <r>   52.1144    0.0000 </r>
      </set>
      <set comment="kpoint 37">
       <r>    2.2682    1.0000 </r>
       <r>    6.9469    1.0000 </r>
       <r>    7.7409    1.0000 </r>
       <r>    8.0143    1.0000 </r>
       <r>    8.2544    1.0000 </r>
       <r>    8.8833    1.0228 </r>
       <r>   27.4248    0.0000 </r>
       <r>   28.1042    0.0000 </r>
       <r>   34.1134    0.0000 </r>
       <r>   34.5903    0.0000 </r>
       <r>   38.7752    0.0000 </r>
       <r>   41.7251    0.0000 </r>
      </set>
      <set comment="kpoint 38">
       <r>    3.5584    1.0000 </r>
       <r>    6.7810    1.0000 </r>
       <r>    7.4989    1.0000 </r>
       <r>    8.0413    1.0000 </r>
       <r>    8.5405    1.0000 </r>
       <r>    9.3297    0.0688 </r>
       <r>   23.1981    0.0000 </r>
       <r>   27.0984    0.0000 </r>
       <r>   32.0660    0.0000 </r>
       <r>   35.1526    0.0000 </r>
       <r>   39.2205    0.0000 </r>
       <r>   40.9508    0.0000 </r>
      </set>
      <set comment="kpoint 39">
       <r>    4.7998    1.0000 </r>
       <r>    6.8598    1.0000 </r>
       <r>    7.2843    1.0000 </r>
       <r>    7.9070    1.0000 </r>
       <r>    9.0012    1.0268 </r>
       <r>   10.0676   -0.0000 </r>
       <r>   19.1192    0.0000 </r>
       <r>   26.8979    0.0000 </r>
       <r>   30.1376    0.0000 </r>
       <r>   34.4738    0.0000 </r>
       <r>   39.0246    0.0000 </r>
       <r>   42.5755    0.0000 </r>
      </set>
      <set comment="kpoint 40">
       <r>    5.3396    1.0000 </r>
       <r>    6.9297    1.0000 </r>
       <r>    7.5094    1.0000 </r>
       <r>    7.8052    1.0000 </r>
       <r>    9.2649    0.2574 </r>
       <r>   11.2903   -0.0000 </r>
       <r>   15.9694    0.0000 </r>
       <r>   27.1853    0.0000 </r>
       <r>   28.7152    0.0000 </r>
       <r>   33.9114    0.0000 </r>
       <r>   38.7306    0.0000 </r>
       <r>   43.0629    0.0000 </r>
      </set>
      <set comment="kpoint 41">
       <r>    3.9100    1.0000 </r>
       <r>    6.4874    1.0000 </r>
       <r>    7.5393    1.0000 </r>
       <r>    8.5295    1.0000 </r>
       <r>    8.5658    1.0000 </r>
       <r>    9.3140    0.1052 </r>
       <r>   25.1396    0.0000 </r>
       <r>   25.6354    0.0000 </r>
       <r>   28.8812    0.0000 </r>
       <r>   33.0005    0.0000 </r>
       <r>   36.2778    0.0000 </r>
       <r>   44.4843    0.0000 </r>
      </set>
      <set comment="kpoint 42">
       <r>    4.9959    1.0000 </r>
       <r>    6.4025    1.0000 </r>
       <r>    7.2784    1.0000 </r>
       <r>    8.4205    1.0000 </r>
       <r>    9.0473    0.9865 </r>
       <r>   10.2371   -0.0000 </r>
       <r>   21.1444    0.0000 </r>
       <r>   25.0084    0.0000 </r>
       <r>   26.7365    0.0000 </r>
       <r>   33.6212    0.0000 </r>
       <r>   38.5042    0.0000 </r>
       <r>   43.1889    0.0000 </r>
      </set>
      <set comment="kpoint 43">
       <r>    5.6882    1.0000 </r>
       <r>    6.4247    1.0000 </r>
       <r>    7.2048    1.0000 </r>
       <r>    8.2585    1.0000 </r>
       <r>    9.2937    0.1612 </r>
       <r>   11.9399   -0.0000 </r>
       <r>   17.4581    0.0000 </r>
       <r>   24.6292    0.0000 </r>
       <r>   25.6221    0.0000 </r>
       <r>   33.7171    0.0000 </r>
       <r>   40.6691    0.0000 </r>
       <r>   43.8391    0.0000 </r>
      </set>
      <set comment="kpoint 44">
       <r>    5.9228    1.0000 </r>
       <r>    6.4423    1.0000 </r>
       <r>    7.2150    1.0000 </r>
       <r>    8.1550    1.0000 </r>
       <r>    9.2423    0.3434 </r>
       <r>   13.2125   -0.0000 </r>
       <r>   15.7601    0.0000 </r>
       <r>   23.5059    0.0000 </r>
       <r>   26.4286    0.0000 </r>
       <r>   34.1610    0.0000 </r>
       <r>   40.2272    0.0000 </r>
       <r>   46.8577    0.0000 </r>
      </set>
      <set comment="kpoint 45">
       <r>    5.6700    1.0000 </r>
       <r>    6.6638    1.0000 </r>
       <r>    6.9431    1.0000 </r>
       <r>    8.1983    1.0000 </r>
       <r>    8.9577    1.0354 </r>
       <r>   11.5010   -0.0000 </r>
       <r>   18.6233    0.0000 </r>
       <r>   22.8622    0.0000 </r>
       <r>   27.9230    0.0000 </r>
       <r>   35.2166    0.0000 </r>
       <r>   39.2760    0.0000 </r>
       <r>   44.9780    0.0000 </r>
      </set>
      <set comment="kpoint 46">
       <r>    4.7541    1.0000 </r>
       <r>    6.6564    1.0000 </r>
       <r>    7.1608    1.0000 </r>
       <r>    8.2773    1.0000 </r>
       <r>    8.5700    1.0000 </r>
       <r>   10.1713   -0.0000 </r>
       <r>   22.1983    0.0000 </r>
       <r>   23.1784    0.0000 </r>
       <r>   29.8926    0.0000 </r>
       <r>   36.8831    0.0000 </r>
       <r>   37.5852    0.0000 </r>
       <r>   42.4930    0.0000 </r>
      </set>
      <set comment="kpoint 47">
       <r>    5.0467    1.0000 </r>
       <r>    6.0757    1.0000 </r>
       <r>    7.8780    1.0000 </r>
       <r>    8.9836    1.0329 </r>
       <r>    9.0993    0.8843 </r>
       <r>   10.3175   -0.0000 </r>
       <r>   23.2855    0.0000 </r>
       <r>   23.3054    0.0000 </r>
       <r>   24.1980    0.0000 </r>
       <r>   31.9386    0.0000 </r>
       <r>   35.0884    0.0000 </r>
       <r>   47.1950    0.0000 </r>
      </set>
      <set comment="kpoint 48">
       <r>    5.5032    1.0000 </r>
       <r>    6.1027    1.0000 </r>
       <r>    7.6596    1.0000 </r>
       <r>    8.7773    1.0050 </r>
       <r>    9.3689    0.0046 </r>
       <r>   12.2480   -0.0000 </r>
       <r>   19.7201    0.0000 </r>
       <r>   21.7219    0.0000 </r>
       <r>   23.8038    0.0000 </r>
       <r>   32.8625    0.0000 </r>
       <r>   37.9590    0.0000 </r>
       <r>   45.5009    0.0000 </r>
      </set>
      <set comment="kpoint 49">
       <r>    5.9015    1.0000 </r>
       <r>    6.2104    1.0000 </r>
       <r>    7.3452    1.0000 </r>
       <r>    8.5445    1.0000 </r>
       <r>    9.3432    0.0426 </r>
       <r>   14.7835    0.0000 </r>
       <r>   16.4659    0.0000 </r>
       <r>   20.4320    0.0000 </r>
       <r>   24.6047    0.0000 </r>
       <r>   33.3893    0.0000 </r>
       <r>   42.1220    0.0000 </r>
       <r>   44.0019    0.0000 </r>
      </set>
      <set comment="kpoint 50">
       <r>    6.1742    1.0000 </r>
       <r>    6.3535    1.0000 </r>
       <r>    6.9494    1.0000 </r>
       <r>    8.3888    1.0000 </r>
       <r>    9.1248    0.8098 </r>
       <r>   13.5297   -0.0000 </r>
       <r>   17.7123    0.0000 </r>
       <r>   20.2035    0.0000 </r>
       <r>   26.0386    0.0000 </r>
       <r>   34.2160    0.0000 </r>
       <r>   41.7179    0.0000 </r>
       <r>   46.1690    0.0000 </r>
      </set>
      <set comment="kpoint 51">
       <r>    5.2076    1.0000 </r>
       <r>    5.8377    1.0000 </r>
       <r>    8.5366    1.0000 </r>
       <r>    9.1040    0.8717 </r>
       <r>    9.4965   -0.0294 </r>
       <r>   12.3416   -0.0000 </r>
       <r>   19.4754    0.0000 </r>
       <r>   22.2160    0.0000 </r>
       <r>   22.8817    0.0000 </r>
       <r>   31.4340    0.0000 </r>
       <r>   34.6534    0.0000 </r>
       <r>   49.5230    0.0000 </r>
      </set>
      <set comment="kpoint 52">
       <r>    5.4925    1.0000 </r>
       <r>    5.9996    1.0000 </r>
       <r>    7.9793    1.0000 </r>
       <r>    8.8614    1.0179 </r>
       <r>    9.4944   -0.0299 </r>
       <r>   14.1509   -0.0000 </r>
       <r>   18.6721    0.0000 </r>
       <r>   19.4613    0.0000 </r>
       <r>   23.2809    0.0000 </r>
       <r>   32.6254    0.0000 </r>
       <r>   37.7928    0.0000 </r>
       <r>   46.9827    0.0000 </r>
      </set>
      <set comment="kpoint 53">
       <r>    5.6984    1.0000 </r>
       <r>    6.4121    1.0000 </r>
       <r>    6.9960    1.0000 </r>
       <r>    8.6021    1.0001 </r>
       <r>    9.0980    0.8876 </r>
       <r>   11.7697   -0.0000 </r>
       <r>   20.3563    0.0000 </r>
       <r>   21.6712    0.0000 </r>
       <r>   24.5898    0.0000 </r>
       <r>   36.4291    0.0000 </r>
       <r>   38.2060    0.0000 </r>
       <r>   42.6170    0.0000 </r>
      </set>
      <set comment="kpoint 54">
       <r>    6.0427    1.0000 </r>
       <r>    6.4459    1.0000 </r>
       <r>    6.9103    1.0000 </r>
       <r>    8.4464    1.0000 </r>
       <r>    9.3257    0.0774 </r>
       <r>   13.9917   -0.0000 </r>
       <r>   17.2510    0.0000 </r>
       <r>   21.6928    0.0000 </r>
       <r>   22.9784    0.0000 </r>
       <r>   37.0003    0.0000 </r>
       <r>   39.2295    0.0000 </r>
       <r>   44.0122    0.0000 </r>
      </set>
      <set comment="kpoint 55">
       <r>    5.7197    1.0000 </r>
       <r>    6.2596    1.0000 </r>
       <r>    7.3864    1.0000 </r>
       <r>    8.6701    1.0005 </r>
       <r>    9.4957   -0.0296 </r>
       <r>   14.3549   -0.0000 </r>
       <r>   19.3068    0.0000 </r>
       <r>   19.9554    0.0000 </r>
       <r>   21.1449    0.0000 </r>
       <r>   35.8352    0.0000 </r>
       <r>   39.0236    0.0000 </r>
       <r>   43.5745    0.0000 </r>
      </set>
[...]
       </set>
       <set comment="band 5">
        <r>  0.0000  0.0024  0.0017  0.0001  0.1753  0.6573  0.0493  0.0113  0.0872 </r>
       </set>
       <set comment="band 6">
        <r>  0.1239  0.0084  0.1167  0.0559  0.0016  0.0021  0.1103  0.3763  0.1001 </r>
       </set>
       <set comment="band 7">
        <r>  0.1557  0.2896  0.0088  0.0401  0.1678  0.0957  0.0131  0.0309  0.0191 </r>
       </set>
       <set comment="band 8">
        <r>  0.1605  0.1732  0.0189  0.0969  0.0634  0.0325  0.0534  0.0422  0.0959 </r>
       </set>
       <set comment="band 9">
        <r>  0.0945  0.0048  0.2920  0.0282  0.0003  0.0031  0.2545  0.0376  0.0025 </r>
       </set>
       <set comment="band 10">
        <r>  0.0111  0.0103  0.0271  0.2749  0.0093  0.0001  0.0100  0.0598  0.0889 </r>
       </set>
       <set comment="band 11">
        <r>  0.0268  0.0521  0.0019  0.0004  0.3666  0.0297  0.0244  0.0495  0.0840 </r>
       </set>
       <set comment="band 12">
        <r>  0.0828  0.0299  0.0680  0.1522  0.0127  0.0118  0.2404  0.0618  0.1053 </r>
       </set>
      </set>
      <set comment="kpoint 46">
       <set comment="band 1">
        <r>  0.3223  0.0000  0.1491  0.0684  0.0000  0.0000  0.0764  0.1415  0.0083 </r>
       </set>
       <set comment="band 2">
        <r>  0.0000  0.0416  0.0000  0.0000  0.7204  0.1758  0.0000  0.0000  0.0000 </r>
       </set>
       <set comment="band 3">
        <r>  0.0045  0.0000  0.0001  0.0094  0.0000  0.0000  0.4305  0.3391  0.1619 </r>
       </set>
       <set comment="band 4">
        <r>  0.0039  0.0000  0.0158  0.0020  0.0000  0.0000  0.3335  0.0127  0.6003 </r>
       </set>
       <set comment="band 5">
        <r>  0.0000  0.0037  0.0000  0.0000  0.2058  0.7710  0.0000  0.0000  0.0000 </r>
       </set>
       <set comment="band 6">
        <r>  0.0721  0.0000  0.0469  0.0223  0.0000  0.0000  0.1196  0.4898  0.2037 </r>
       </set>
       <set comment="band 7">
        <r>  0.0000  0.4357  0.0000  0.0000  0.2404  0.1553  0.0000  0.0000  0.0000 </r>
       </set>
       <set comment="band 8">
        <r>  0.2310  0.0000  0.0503  0.1835  0.0000  0.0000  0.0523  0.1070  0.0690 </r>
       </set>
       <set comment="band 9">
        <r>  0.0740  0.0000  0.2771  0.0027  0.0000  0.0000  0.3073  0.0130  0.0013 </r>
       </set>
       <set comment="band 10">
        <r>  0.0004  0.0000  0.0445  0.3222  0.0000  0.0000  0.0267  0.0080  0.1102 </r>
       </set>
       <set comment="band 11">
        <r>  0.0000  0.1040  0.0000  0.0000  0.3900  0.0363  0.0000  0.0000  0.0000 </r>
       </set>
       <set comment="band 12">
        <r>  0.1301  0.0000  0.1241  0.0944  0.0000  0.0000  0.1899  0.1108  0.1905 </r>
       </set>
      </set>
      <set comment="kpoint 47">
       <set comment="band 1">
        <r>  0.1546  0.0942  0.0000  0.0154  0.0143  0.0000  0.1567  0.0000  0.3831 </r>
       </set>
       <set comment="band 2">
        <r>  0.0000  0.0000  0.0129  0.0000  0.0000  0.0108  0.0000  0.9143  0.0000 </r>
       </set>
       <set comment="band 3">
        <r>  0.0572  0.1126  0.0000  0.0014  0.5128  0.0000  0.1502  0.0000  0.0820 </r>
       </set>
       <set comment="band 4">
        <r>  0.0065  0.0224  0.0000  0.0032  0.0000  0.0000  0.5209  0.0000  0.4243 </r>
       </set>
       <set comment="band 5">
        <r>  0.0000  0.0000  0.0076  0.0000  0.0000  0.9637  0.0000  0.0148  0.0000 </r>
       </set>
       <set comment="band 6">
        <r>  0.0930  0.1573  0.0000  0.0118  0.4571  0.0000  0.1405  0.0000  0.0535 </r>
       </set>
       <set comment="band 7">
        <r>  0.0000  0.0000  0.4936  0.0000  0.0000  0.0690  0.0000  0.2183  0.0000 </r>
       </set>
       <set comment="band 8">
        <r>  0.0089  0.1085  0.0000  0.1699  0.0463  0.0000  0.1451  0.0000  0.2308 </r>
       </set>
       <set comment="band 9">
        <r>  0.2725  0.1347  0.0000  0.2447  0.0249  0.0000  0.0003  0.0000  0.0596 </r>
       </set>
       <set comment="band 10">
        <r>  0.0000  0.0000  0.0998  0.0000  0.0000  0.0151  0.0000  0.6687  0.0000 </r>
       </set>
       <set comment="band 11">
        <r>  0.2751  0.0831  0.0000  0.1767  0.0133  0.0000  0.0180  0.0000  0.1080 </r>
       </set>
       <set comment="band 12">
        <r>  0.0444  0.0010  0.0000  0.0450  0.0988  0.0000  0.0539  0.0000  0.2271 </r>
       </set>
      </set>
      <set comment="kpoint 48">
       <set comment="band 1">
        <r>  0.0631  0.0366  0.0009  0.0251  0.0124  0.0023  0.2380  0.0252  0.4536 </r>
       </set>
       <set comment="band 2">
        <r>  0.0005  0.0000  0.0310  0.0067  0.0039  0.0121  0.0108  0.8505  0.0148 </r>
       </set>
       <set comment="band 3">
        <r>  0.0310  0.1162  0.0002  0.0002  0.6254  0.0384  0.0801  0.0161  0.0125 </r>
       </set>
       <set comment="band 4">
        <r>  0.0000  0.0110  0.0016  0.0041  0.0001  0.1323  0.4842  0.0020  0.3423 </r>
       </set>
       <set comment="band 5">
        <r>  0.0002  0.0002  0.0022  0.0001  0.0874  0.7678  0.0763  0.0102  0.0474 </r>
       </set>
       <set comment="band 6">
        <r>  0.1064  0.2974  0.0047  0.0201  0.2731  0.0298  0.0615  0.0009  0.0634 </r>
       </set>
       <set comment="band 7">
        <r>  0.0925  0.0003  0.2824  0.1318  0.0179  0.0248  0.0358  0.1648  0.0204 </r>
       </set>
       <set comment="band 8">
        <r>  0.2019  0.1848  0.0070  0.0241  0.0186  0.0002  0.0942  0.0138  0.2312 </r>
       </set>
       <set comment="band 9">
        <r>  0.1433  0.0156  0.2209  0.1932  0.0107  0.0126  0.0630  0.0630  0.0022 </r>
       </set>
       <set comment="band 10">
        <r>  0.0561  0.0081  0.0570  0.0542  0.0009  0.0052  0.0009  0.5023  0.0349 </r>
       </set>
       <set comment="band 11">
        <r>  0.1494  0.0264  0.0370  0.2038  0.0023  0.0027  0.0187  0.1350  0.1059 </r>
       </set>
       <set comment="band 12">
        <r>  0.0559  0.0087  0.0020  0.0227  0.2195  0.0035  0.0377  0.0015  0.1819 </r>
       </set>
      </set>
      <set comment="kpoint 49">
       <set comment="band 1">
        <r>  0.0205  0.0081  0.0020  0.0294  0.0055  0.0022  0.3117  0.0742  0.4292 </r>
       </set>
       <set comment="band 2">
        <r>  0.0124  0.0009  0.0568  0.0237  0.0156  0.0108  0.0366  0.7323  0.0234 </r>
       </set>
       <set comment="band 3">
        <r>  0.0056  0.1127  0.0017  0.0004  0.6551  0.0966  0.0126  0.0377  0.0009 </r>
       </set>
       <set comment="band 4">
        <r>  0.0027  0.0025  0.0033  0.0029  0.0008  0.0543  0.5028  0.0004  0.4042 </r>
       </set>
       <set comment="band 5">
        <r>  0.0006  0.0008  0.0001  0.0000  0.1544  0.7788  0.0293  0.0054  0.0220 </r>
       </set>
       <set comment="band 6">
        <r>  0.0219  0.3695  0.0450  0.0505  0.1737  0.0434  0.0457  0.0164  0.0531 </r>
       </set>
       <set comment="band 7">
        <r>  0.1965  0.0387  0.2017  0.0835  0.0385  0.0249  0.0291  0.1845  0.0130 </r>
       </set>
       <set comment="band 8">
        <r>  0.2941  0.1150  0.0010  0.0464  0.0213  0.0047  0.0819  0.0159  0.1992 </r>
       </set>
       <set comment="band 9">
        <r>  0.1153  0.0028  0.2682  0.1378  0.0018  0.0033  0.1369  0.0663  0.0014 </r>
       </set>
       <set comment="band 10">
        <r>  0.0669  0.0034  0.0304  0.1293  0.0001  0.0008  0.0000  0.3417  0.0773 </r>
       </set>
       <set comment="band 11">
        <r>  0.0499  0.0148  0.0417  0.1967  0.0257  0.0039  0.0313  0.2416  0.0447 </r>
       </set>
       <set comment="band 12">
        <r>  0.0584  0.0225  0.0138  0.0032  0.3218  0.0088  0.0052  0.0104  0.1230 </r>
       </set>
      </set>
      <set comment="kpoint 50">
       <set comment="band 1">
        <r>  0.0347  0.0000  0.0861  0.0718  0.0000  0.0000  0.2478  0.2871  0.1313 </r>
       </set>
       <set comment="band 2">
        <r>  0.0286  0.0000  0.0076  0.0033  0.0000  0.0000  0.1937  0.4582  0.2314 </r>
       </set>
       <set comment="band 3">
        <r>  0.0000  0.0942  0.0000  0.0000  0.6815  0.1500  0.0000  0.0000  0.0000 </r>
       </set>
       <set comment="band 4">
        <r>  0.0018  0.0000  0.0093  0.0002  0.0000  0.0000  0.4339  0.0066  0.5190 </r>
       </set>
       <set comment="band 5">
        <r>  0.0000  0.0024  0.0000  0.0000  0.1951  0.7903  0.0000  0.0000  0.0000 </r>
       </set>
       <set comment="band 6">
        <r>  0.1524  0.0000  0.1893  0.0920  0.0000  0.0000  0.0772  0.2711  0.0582 </r>
       </set>
       <set comment="band 7">
        <r>  0.0000  0.5119  0.0000  0.0000  0.2208  0.0972  0.0000  0.0000  0.0000 </r>
       </set>
       <set comment="band 8">
        <r>  0.3694  0.0000  0.0134  0.0938  0.0000  0.0000  0.0768  0.0376  0.1669 </r>
       </set>
       <set comment="band 9">
        <r>  0.1053  0.0000  0.2866  0.0805  0.0000  0.0000  0.2053  0.0583  0.0018 </r>
       </set>
       <set comment="band 10">
        <r>  0.0464  0.0000  0.0219  0.1993  0.0000  0.0000  0.0027  0.2018  0.1103 </r>
       </set>
       <set comment="band 11">
        <r>  0.0000  0.0614  0.0000  0.0000  0.4229  0.0199  0.0000  0.0000  0.0000 </r>
       </set>
       <set comment="band 12">
        <r>  0.0183  0.0000  0.0001  0.2898  0.0000  0.0000  0.1643  0.2973  0.0276 </r>
       </set>
      </set>
      <set comment="kpoint 51">
       <set comment="band 1">
        <r>  0.0537  0.0088  0.0000  0.0129  0.0008  0.0000  0.2307  0.0000  0.5560 </r>
       </set>
       <set comment="band 2">
        <r>  0.0000  0.0000  0.0137  0.0000  0.0000  0.0011  0.0000  0.9206  0.0000 </r>
       </set>
       <set comment="band 3">
        <r>  0.0089  0.1229  0.0000  0.0006  0.7593  0.0000  0.0430  0.0000  0.0001 </r>
       </set>
       <set comment="band 4">
        <r>  0.0001  0.0070  0.0000  0.0027  0.0239  0.0000  0.6503  0.0000  0.3021 </r>
       </set>
       <set comment="band 5">
        <r>  0.0000  0.0000  0.0013  0.0000  0.0000  0.9910  0.0000  0.0016  0.0000 </r>
       </set>
       <set comment="band 6">
        <r>  0.0502  0.4867  0.0000  0.0039  0.2225  0.0000  0.0189  0.0000  0.0308 </r>
       </set>
       <set comment="band 7">
        <r>  0.2746  0.0773  0.0000  0.0296  0.0056  0.0000  0.1195  0.0000  0.3063 </r>
       </set>
       <set comment="band 8">
        <r>  0.0000  0.0000  0.5453  0.0000  0.0000  0.0089  0.0000  0.1980  0.0000 </r>
       </set>
       <set comment="band 9">
        <r>  0.1808  0.0034  0.0000  0.4361  0.0071  0.0000  0.0484  0.0000  0.0006 </r>
       </set>
       <set comment="band 10">
        <r>  0.0000  0.0000  0.0856  0.0000  0.0000  0.0016  0.0000  0.7516  0.0000 </r>
       </set>
       <set comment="band 11">
        <r>  0.3159  0.0094  0.0000  0.1592  0.0013  0.0000  0.0322  0.0000  0.1827 </r>
       </set>
       <set comment="band 12">
        <r>  0.0163  0.0156  0.0000  0.0139  0.2127  0.0000  0.0191  0.0000  0.0519 </r>
       </set>
      </set>
      <set comment="kpoint 52">
       <set comment="band 1">
        <r>  0.0302  0.0000  0.0015  0.0247  0.0000  0.0000  0.2811  0.0097  0.5249 </r>
       </set>
       <set comment="band 2">
        <r>  0.0011  0.0000  0.0313  0.0051  0.0000  0.0000  0.0029  0.8869  0.0033 </r>
       </set>
       <set comment="band 3">
        <r>  0.0000  0.1349  0.0000  0.0000  0.7355  0.0558  0.0000  0.0000  0.0000 </r>
       </set>
       <set comment="band 4">
        <r>  0.0030  0.0000  0.0008  0.0045  0.0000  0.0000  0.6302  0.0001  0.3425 </r>
       </set>
       <set comment="band 5">
        <r>  0.0000  0.0007  0.0000  0.0000  0.0778  0.9156  0.0000  0.0000  0.0000 </r>
       </set>
       <set comment="band 6">
        <r>  0.0000  0.5575  0.0000  0.0000  0.2230  0.0288  0.0000  0.0000  0.0000 </r>
       </set>
       <set comment="band 7">
        <r>  0.0901  0.0000  0.1155  0.1429  0.0000  0.0000  0.1448  0.0404  0.2511 </r>
       </set>
       <set comment="band 8">
        <r>  0.3799  0.0000  0.1935  0.0292  0.0000  0.0000  0.0033  0.1397  0.0483 </r>
       </set>
       <set comment="band 9">
        <r>  0.1247  0.0000  0.2274  0.2171  0.0000  0.0000  0.0837  0.0616  0.0001 </r>
       </set>
       <set comment="band 10">
        <r>  0.0586  0.0000  0.0547  0.0478  0.0000  0.0000  0.0015  0.5404  0.0440 </r>
       </set>
       <set comment="band 11">
        <r>  0.1764  0.0000  0.0357  0.1936  0.0000  0.0000  0.0215  0.1313  0.1524 </r>
       </set>
       <set comment="band 12">
        <r>  0.0000  0.0331  0.0000  0.0000  0.3321  0.0050  0.0000  0.0000  0.0000 </r>
       </set>
      </set>
      <set comment="kpoint 53">
       <set comment="band 1">
        <r>  0.0997  0.0914  0.0000  0.0520  0.0794  0.0000  0.2330  0.0000  0.2765 </r>
       </set>
       <set comment="band 2">
        <r>  0.0000  0.0000  0.0480  0.0000  0.0000  0.0502  0.0000  0.8344  0.0000 </r>
       </set>
       <set comment="band 3">
        <r>  0.0383  0.0526  0.0000  0.0015  0.5527  0.0000  0.2266  0.0000  0.0545 </r>
       </set>
       <set comment="band 4">
        <r>  0.0002  0.0202  0.0000  0.0038  0.0078  0.0000  0.3587  0.0000  0.5805 </r>
       </set>
       <set comment="band 5">
        <r>  0.0000  0.0000  0.0056  0.0000  0.0000  0.9138  0.0000  0.0671  0.0000 </r>
       </set>
       <set comment="band 6">
        <r>  0.1320  0.1809  0.0000  0.0349  0.3617  0.0000  0.1327  0.0000  0.0433 </r>
       </set>
       <set comment="band 7">
        <r>  0.0000  0.0000  0.4926  0.0000  0.0000  0.0746  0.0000  0.2536  0.0000 </r>
       </set>
       <set comment="band 8">
        <r>  0.2303  0.0045  0.0000  0.2336  0.0577  0.0000  0.1699  0.0000  0.0148 </r>
       </set>
       <set comment="band 9">
        <r>  0.1933  0.2703  0.0000  0.0082  0.0233  0.0000  0.0454  0.0000  0.2127 </r>
       </set>
       <set comment="band 10">
        <r>  0.0000  0.0000  0.0927  0.0000  0.0000  0.0186  0.0000  0.5346  0.0000 </r>
       </set>
       <set comment="band 11">
        <r>  0.0277  0.0573  0.0000  0.3603  0.0142  0.0000  0.0323  0.0000  0.0034 </r>
       </set>
       <set comment="band 12">
        <r>  0.1733  0.0048  0.0000  0.0142  0.2184  0.0000  0.0322  0.0000  0.3877 </r>
       </set>
      </set>
      <set comment="kpoint 54">
       <set comment="band 1">
        <r>  0.0157  0.0319  0.0002  0.0560  0.0305  0.0028  0.4541  0.0201  0.2582 </r>
       </set>
       <set comment="band 2">
        <r>  0.0224  0.0152  0.0519  0.0039  0.1951  0.0434  0.0647  0.5169  0.0049 </r>
       </set>
       <set comment="band 3">
        <r>  0.0118  0.0586  0.0233  0.0021  0.5202  0.0002  0.0361  0.2730  0.0006 </r>
       </set>
       <set comment="band 4">
        <r>  0.0040  0.0090  0.0013  0.0008  0.0069  0.0454  0.2789  0.0003  0.6238 </r>
       </set>
       <set comment="band 5">
        <r>  0.0009  0.0000  0.0021  0.0000  0.0263  0.8711  0.0127  0.0506  0.0269 </r>
       </set>
       <set comment="band 6">
        <r>  0.1027  0.2725  0.0174  0.0646  0.2366  0.0060  0.0872  0.0036  0.0421 </r>
       </set>
       <set comment="band 7">
        <r>  0.1535  0.0016  0.3305  0.0341  0.0208  0.0400  0.0326  0.2045  0.0018 </r>
       </set>
       <set comment="band 8">
        <r>  0.1098  0.0032  0.1485  0.1489  0.0285  0.0057  0.2220  0.0572  0.0186 </r>
       </set>
       <set comment="band 9">
        <r>  0.2823  0.2303  0.0196  0.0204  0.0349  0.0046  0.0148  0.0003  0.1590 </r>
       </set>
       <set comment="band 10">
        <r>  0.0027  0.0219  0.0374  0.1980  0.0394  0.0018  0.0101  0.1985  0.0053 </r>
       </set>
       <set comment="band 11">
        <r>  0.0190  0.0182  0.0231  0.0494  0.1728  0.0092  0.0436  0.2494  0.0535 </r>
       </set>
       <set comment="band 12">
        <r>  0.1017  0.0003  0.0157  0.1857  0.1654  0.0000  0.0000  0.0692  0.2401 </r>
       </set>
      </set>
      <set comment="kpoint 55">
       <set comment="band 1">
        <r>  0.0189  0.0075  0.0000  0.0433  0.0028  0.0000  0.3808  0.0000  0.4177 </r>
       </set>
       <set comment="band 2">
        <r>  0.0000  0.0000  0.0508  0.0000  0.0000  0.0050  0.0000  0.8749  0.0000 </r>
       </set>
       <set comment="band 3">
        <r>  0.0104  0.1149  0.0000  0.0000  0.7719  0.0000  0.0252  0.0000  0.0000 </r>
       </set>
       <set comment="band 4">
        <r>  0.0067  0.0046  0.0000  0.0034  0.0104  0.0000  0.4774  0.0000  0.4720 </r>
       </set>
       <set comment="band 5">
        <r>  0.0000  0.0000  0.0012  0.0000  0.0000  0.9854  0.0000  0.0074  0.0000 </r>
       </set>
       <set comment="band 6">
        <r>  0.0653  0.4280  0.0000  0.0184  0.2523  0.0000  0.0307  0.0000  0.0305 </r>
       </set>
       <set comment="band 7">
        <r>  0.0000  0.0000  0.5315  0.0000  0.0000  0.0101  0.0000  0.2630  0.0000 </r>
       </set>
       <set comment="band 8">
        <r>  0.0753  0.0868  0.0000  0.1662  0.0285  0.0000  0.1927  0.0000  0.2136 </r>
       </set>
       <set comment="band 9">
        <r>  0.5057  0.0249  0.0000  0.1292  0.0004  0.0000  0.0683  0.0000  0.0168 </r>
       </set>
       <set comment="band 10">
        <r>  0.0000  0.0000  0.0876  0.0000  0.0000  0.0022  0.0000  0.5918  0.0000 </r>
       </set>
       <set comment="band 11">
        <r>  0.1228  0.0116  0.0000  0.3479  0.0022  0.0000  0.0182  0.0000  0.1441 </r>
       </set>
       <set comment="band 12">
        <r>  0.0441  0.0304  0.0000  0.0002  0.3653  0.0000  0.0118  0.0000  0.0965 </r>
       </set>
      </set>
      <set comment="kpoint 56">
       <set comment="band 1">
        <r>  0.0013  0.0000  0.0031  0.0545  0.0000  0.0000  0.5279  0.0001  0.2889 </r>
       </set>
       <set comment="band 2">
        <r>  0.0076  0.0000  0.0741  0.0018  0.0000  0.0000  0.0002  0.8373  0.0033 </r>
       </set>
       <set comment="band 3">
        <r>  0.0000  0.0994  0.0000  0.0000  0.8098  0.0155  0.0000  0.0000  0.0000 </r>
       </set>
       <set comment="band 4">
        <r>  0.0137  0.0000  0.0017  0.0005  0.0000  0.0000  0.3367  0.0033  0.6137 </r>
       </set>
       <set comment="band 5">
        <r>  0.0000  0.0010  0.0000  0.0000  0.0230  0.9700  0.0000  0.0000  0.0000 </r>
       </set>
       <set comment="band 6">
        <r>  0.0000  0.5399  0.0000  0.0000  0.2625  0.0147  0.0000  0.0000  0.0000 </r>
       </set>
       <set comment="band 7">
        <r>  0.0685  0.0000  0.3649  0.0682  0.0000  0.0000  0.0691  0.2174  0.0169 </r>
       </set>
       <set comment="band 8">
        <r>  0.2698  0.0000  0.0107  0.1378  0.0000  0.0000  0.1373  0.0233  0.1909 </r>
       </set>
       <set comment="band 9">
        <r>  0.3403  0.0000  0.1562  0.0762  0.0000  0.0000  0.1413  0.0430  0.0040 </r>
       </set>
       <set comment="band 10">
        <r>  0.0154  0.0000  0.0554  0.1040  0.0000  0.0000  0.0002  0.3933  0.0421 </r>
       </set>
       <set comment="band 11">
        <r>  0.0000  0.0614  0.0000  0.0000  0.4742  0.0026  0.0000  0.0000  0.0000 </r>
       </set>
       <set comment="band 12">
        <r>  0.0180  0.0000  0.0157  0.3617  0.0000  0.0000  0.0457  0.1545  0.0541 </r>
       </set>
      </set>
     </set>
    </set>
   </array>
  </projected>
 </calculation>
 <structure name="finalpos" >
  <crystal>
   <varray name="basis" >
    <v>       1.76500000       1.76500000       0.00000000 </v>
    <v>       0.00000000       1.76500000       1.76500000 </v>
    <v>       1.76500000       0.00000000       1.76500000 </v>
   </varray>
   <i name="volume">     10.99674425 </i>
   <varray name="rec_basis" >
    <v>       0.28328612       0.28328612      -0.28328612 </v>
    <v>      -0.28328612       0.28328612       0.28328612 </v>
    <v>       0.28328612      -0.28328612       0.28328612 </v>
   </varray>
  </crystal>
  <varray name="positions" >
   <v>       0.00000000       0.00000000       0.00000000 </v>
  </varray>
 </structure>
</modeling>
