   8   8   0   0
  0.2469169E+02  0.5174038E-09  0.5174038E-09  0.8520222E-09  0.5000000E-15
  1.000000000000000E-004
  CAR 
 BC3-optical                             
    102.41669019    -24.30018793 2400     -2.41920970      1.00000000
    -24.300  0.0000E+00  0.0000E+00
    -24.247  0.0000E+00  0.0000E+00
    -24.195  0.0000E+00  0.0000E+00
    -24.142  0.0000E+00  0.0000E+00
    -24.089  0.0000E+00  0.0000E+00
    -24.036  0.0000E+00  0.0000E+00
    -23.983  0.0000E+00  0.0000E+00
    -23.930  0.0000E+00  0.0000E+00
    -23.878  0.0000E+00  0.0000E+00
    -23.825  0.0000E+00  0.0000E+00
    -23.772  0.0000E+00  0.0000E+00
    -23.719  0.0000E+00  0.0000E+00
    -23.666  0.0000E+00  0.0000E+00
    -23.614  0.0000E+00  0.0000E+00
    -23.561  0.0000E+00  0.0000E+00
    -23.508  0.0000E+00  0.0000E+00
    -23.455  0.0000E+00  0.0000E+00
    -23.402  0.0000E+00  0.0000E+00
    -23.349  0.0000E+00  0.0000E+00
    -23.297  0.0000E+00  0.0000E+00
    -23.244  0.0000E+00  0.0000E+00
    -23.191  0.0000E+00  0.0000E+00
    -23.138  0.0000E+00  0.0000E+00
    -23.085  0.0000E+00  0.0000E+00
    -23.032  0.0000E+00  0.0000E+00
    -22.980  0.0000E+00  0.0000E+00
    -22.927  0.0000E+00  0.0000E+00
    -22.874  0.0000E+00  0.0000E+00
    -22.821  0.0000E+00  0.0000E+00
    -22.768  0.0000E+00  0.0000E+00
    -22.716  0.0000E+00  0.0000E+00
    -22.663  0.0000E+00  0.0000E+00
    -22.610  0.0000E+00  0.0000E+00
    -22.557  0.0000E+00  0.0000E+00
    -22.504  0.0000E+00  0.0000E+00
    -22.451  0.0000E+00  0.0000E+00
    -22.399  0.0000E+00  0.0000E+00
    -22.346  0.0000E+00  0.0000E+00
    -22.293  0.0000E+00  0.0000E+00
    -22.240  0.0000E+00  0.0000E+00
    -22.187  0.0000E+00  0.0000E+00
    -22.135  0.0000E+00  0.0000E+00
    -22.082  0.0000E+00  0.0000E+00
    -22.029  0.0000E+00  0.0000E+00
    -21.976  0.0000E+00  0.0000E+00
    -21.923  0.0000E+00  0.0000E+00
    -21.870  0.0000E+00  0.0000E+00
    -21.818  0.0000E+00  0.0000E+00
    -21.765  0.0000E+00  0.0000E+00
    -21.712  0.0000E+00  0.0000E+00
    -21.659  0.0000E+00  0.0000E+00
    -21.606  0.0000E+00  0.0000E+00
    -21.554  0.0000E+00  0.0000E+00
    -21.501  0.0000E+00  0.0000E+00
    -21.448  0.0000E+00  0.0000E+00
    -21.395  0.0000E+00  0.0000E+00
    -21.342  0.0000E+00  0.0000E+00
    -21.289  0.0000E+00  0.0000E+00
    -21.237  0.0000E+00  0.0000E+00
    -21.184  0.0000E+00  0.0000E+00
    -21.131  0.0000E+00  0.0000E+00
    -21.078  0.0000E+00  0.0000E+00
    -21.025  0.0000E+00  0.0000E+00
    -20.972  0.0000E+00  0.0000E+00
    -20.920  0.0000E+00  0.0000E+00
    -20.867  0.0000E+00  0.0000E+00
    -20.814  0.0000E+00  0.0000E+00
    -20.761  0.0000E+00  0.0000E+00
    -20.708  0.0000E+00  0.0000E+00
    -20.656  0.0000E+00  0.0000E+00
    -20.603  0.0000E+00  0.0000E+00
    -20.550  0.0000E+00  0.0000E+00
    -20.497  0.0000E+00  0.0000E+00
    -20.444  0.0000E+00  0.0000E+00
    -20.391  0.0000E+00  0.0000E+00
    -20.339  0.0000E+00  0.0000E+00
    -20.286  0.0000E+00  0.0000E+00
    -20.233  0.0000E+00  0.0000E+00
    -20.180  0.0000E+00  0.0000E+00
    -20.127  0.0000E+00  0.0000E+00
    -20.075  0.0000E+00  0.0000E+00
    -20.022  0.0000E+00  0.0000E+00
    -19.969  0.0000E+00  0.0000E+00
    -19.916  0.0000E+00  0.0000E+00
    -19.863  0.0000E+00  0.0000E+00
    -19.810  0.0000E+00  0.0000E+00
    -19.758  0.0000E+00  0.0000E+00
    -19.705  0.0000E+00  0.0000E+00
    -19.652  0.0000E+00  0.0000E+00
    -19.599  0.0000E+00  0.0000E+00
    -19.546  0.0000E+00  0.0000E+00
    -19.494  0.0000E+00  0.0000E+00
    -19.441  0.0000E+00  0.0000E+00
    -19.388  0.0000E+00  0.0000E+00
    -19.335  0.0000E+00  0.0000E+00
    -19.282  0.0000E+00  0.0000E+00
    -19.229  0.0000E+00  0.0000E+00
    -19.177  0.0000E+00  0.0000E+00
    -19.124  0.0000E+00  0.0000E+00
    -19.071  0.0000E+00  0.0000E+00
    -19.018  0.0000E+00  0.0000E+00
    -18.965  0.0000E+00  0.0000E+00
    -18.912  0.0000E+00  0.0000E+00
    -18.860  0.0000E+00  0.0000E+00
    -18.807  0.0000E+00  0.0000E+00
    -18.754  0.0000E+00  0.0000E+00
    -18.701  0.0000E+00  0.0000E+00
    -18.648  0.0000E+00  0.0000E+00
    -18.596  0.7590E-15  0.4009E-16
    -18.543  0.9655E-01  0.5100E-02
    -18.490  0.1743E+01  0.9718E-01
    -18.437  0.2112E+01  0.2087E+00
    -18.384  0.1045E+01  0.2639E+00
    -18.331  0.3158E+01  0.4307E+00
    -18.279  0.1574E+01  0.5139E+00
    -18.226  0.2426E+01  0.6420E+00
    -18.173  0.2417E+01  0.7697E+00
    -18.120  0.1499E+01  0.8489E+00
    -18.067  0.5899E+01  0.1160E+01
    -18.015  0.1900E+01  0.1261E+01
    -17.962  0.8393E+01  0.1704E+01
    -17.909  0.2624E+01  0.1843E+01
    -17.856  0.2973E+01  0.2000E+01
    -17.803  0.2961E-02  0.2000E+01
    -17.750  0.0000E+00  0.2000E+01
    -17.698  0.0000E+00  0.2000E+01
    -17.645  0.0000E+00  0.2000E+01
    -17.592  0.0000E+00  0.2000E+01
    -17.539  0.0000E+00  0.2000E+01
    -17.486  0.0000E+00  0.2000E+01
    -17.433  0.0000E+00  0.2000E+01
    -17.381  0.0000E+00  0.2000E+01
    -17.328  0.0000E+00  0.2000E+01
    -17.275  0.0000E+00  0.2000E+01
    -17.222  0.0000E+00  0.2000E+01
    -17.169  0.0000E+00  0.2000E+01
    -17.117  0.0000E+00  0.2000E+01
    -17.064  0.0000E+00  0.2000E+01
    -17.011  0.0000E+00  0.2000E+01
    -16.958  0.0000E+00  0.2000E+01
    -16.905  0.0000E+00  0.2000E+01
    -16.852  0.0000E+00  0.2000E+01
    -16.800  0.0000E+00  0.2000E+01
    -16.747  0.0000E+00  0.2000E+01
    -16.694  0.0000E+00  0.2000E+01
    -16.641  0.0000E+00  0.2000E+01
    -16.588  0.0000E+00  0.2000E+01
    -16.536  0.0000E+00  0.2000E+01
    -16.483  0.0000E+00  0.2000E+01
    -16.430  0.0000E+00  0.2000E+01
    -16.377  0.0000E+00  0.2000E+01
    -16.324  0.7146E-13  0.2000E+01
    -16.271  0.4283E+00  0.2023E+01
    -16.219  0.2766E+01  0.2169E+01
    -16.166  0.2863E+01  0.2320E+01
    -16.113  0.1089E+01  0.2377E+01
    -16.060  0.6168E+01  0.2703E+01
    -16.007  0.3466E+01  0.2886E+01
    -15.955  0.1400E+01  0.2960E+01
    -15.902  0.1016E+01  0.3014E+01
    -15.849  0.4730E+01  0.3264E+01
    -15.796  0.1922E-02  0.3264E+01
    -15.743  0.5636E-04  0.3264E+01
    -15.690  0.6061E+01  0.3584E+01
    -15.638  0.2499E+00  0.3597E+01
    -15.585  0.1456E+01  0.3674E+01
    -15.532  0.1700E+01  0.3764E+01
    -15.479  0.1645E+01  0.3851E+01
    -15.426  0.3681E+01  0.4045E+01
    -15.373  0.9846E+00  0.4097E+01
    -15.321  0.3802E+01  0.4298E+01
    -15.268  0.2509E+01  0.4431E+01
    -15.215  0.1874E+01  0.4530E+01
    -15.162  0.3064E+01  0.4691E+01
    -15.109  0.4172E+01  0.4912E+01
    -15.057  0.5134E+01  0.5183E+01
    -15.004  0.2463E+01  0.5313E+01
    -14.951  0.1437E+01  0.5389E+01
    -14.898  0.4728E+01  0.5639E+01
    -14.845  0.4590E-02  0.5639E+01
    -14.792  0.1206E+01  0.5703E+01
    -14.740  0.3527E+01  0.5889E+01
    -14.687  0.1154E+01  0.5950E+01
    -14.634  0.9401E+00  0.5999E+01
    -14.581  0.9540E-02  0.6000E+01
    -14.528  0.0000E+00  0.6000E+01
    -14.476  0.0000E+00  0.6000E+01
    -14.423  0.0000E+00  0.6000E+01
    -14.370  0.0000E+00  0.6000E+01
    -14.317  0.0000E+00  0.6000E+01
    -14.264  0.0000E+00  0.6000E+01
    -14.211  0.0000E+00  0.6000E+01
    -14.159  0.0000E+00  0.6000E+01
    -14.106  0.0000E+00  0.6000E+01
    -14.053  0.0000E+00  0.6000E+01
    -14.000  0.0000E+00  0.6000E+01
    -13.947  0.0000E+00  0.6000E+01
    -13.895  0.0000E+00  0.6000E+01
    -13.842  0.0000E+00  0.6000E+01
    -13.789  0.0000E+00  0.6000E+01
    -13.736  0.0000E+00  0.6000E+01
    -13.683  0.0000E+00  0.6000E+01
    -13.630  0.0000E+00  0.6000E+01
    -13.578  0.0000E+00  0.6000E+01
    -13.525  0.0000E+00  0.6000E+01
    -13.472  0.0000E+00  0.6000E+01
    -13.419  0.0000E+00  0.6000E+01
    -13.366  0.0000E+00  0.6000E+01
    -13.313  0.0000E+00  0.6000E+01
    -13.261  0.0000E+00  0.6000E+01
    -13.208  0.0000E+00  0.6000E+01
    -13.155  0.0000E+00  0.6000E+01
    -13.102  0.0000E+00  0.6000E+01
    -13.049  0.0000E+00  0.6000E+01
    -12.997  0.0000E+00  0.6000E+01
    -12.944  0.0000E+00  0.6000E+01
    -12.891  0.3955E-10  0.6000E+01
    -12.838  0.6658E+00  0.6035E+01
    -12.785  0.1701E+01  0.6125E+01
    -12.732  0.7113E+00  0.6163E+01
    -12.680  0.3885E+01  0.6368E+01
    -12.627  0.3206E+01  0.6537E+01
    -12.574  0.1664E+01  0.6625E+01
    -12.521  0.3155E+01  0.6792E+01
    -12.468  0.4558E-01  0.6794E+01
    -12.416  0.4685E+01  0.7042E+01
    -12.363  0.1150E+01  0.7102E+01
    -12.310  0.8277E+01  0.7539E+01
    -12.257  0.3724E+01  0.7736E+01
    -12.204  0.4913E+00  0.7762E+01
    -12.151  0.1086E+01  0.7819E+01
    -12.099  0.4823E-03  0.7819E+01
    -12.046  0.1581E+01  0.7903E+01
    -11.993  0.1574E+01  0.7986E+01
    -11.940  0.1814E+00  0.7996E+01
    -11.887  0.4514E+01  0.8234E+01
    -11.835  0.1619E+00  0.8243E+01
    -11.782  0.3031E+01  0.8403E+01
    -11.729  0.1046E+00  0.8408E+01
    -11.676  0.1473E+01  0.8486E+01
    -11.623  0.0000E+00  0.8486E+01
    -11.570  0.7833E-03  0.8486E+01
    -11.518  0.1739E+01  0.8578E+01
    -11.465  0.8900E+00  0.8625E+01
    -11.412  0.6310E+01  0.8958E+01
    -11.359  0.1578E+01  0.9042E+01
    -11.306  0.0000E+00  0.9042E+01
    -11.253  0.1859E-01  0.9043E+01
    -11.201  0.3400E+01  0.9222E+01
    -11.148  0.3635E-07  0.9222E+01
    -11.095  0.2449E+01  0.9352E+01
    -11.042  0.3862E+01  0.9556E+01
    -10.989  0.3153E+01  0.9722E+01
    -10.937  0.2660E-02  0.9722E+01
    -10.884  0.1356E+01  0.9794E+01
    -10.831  0.5741E+00  0.9824E+01
    -10.778  0.1225E+01  0.9889E+01
    -10.725  0.1246E+00  0.9895E+01
    -10.672  0.6029E+01  0.1021E+02
    -10.620  0.1573E+00  0.1022E+02
    -10.567  0.2909E-09  0.1022E+02
    -10.514  0.7141E+00  0.1026E+02
    -10.461  0.7473E-01  0.1026E+02
    -10.408  0.0000E+00  0.1026E+02
    -10.356  0.3021E-02  0.1026E+02
    -10.303  0.3152E+01  0.1043E+02
    -10.250  0.0000E+00  0.1043E+02
    -10.197  0.3781E-03  0.1043E+02
    -10.144  0.1577E+01  0.1051E+02
    -10.091  0.0000E+00  0.1051E+02
    -10.039  0.0000E+00  0.1051E+02
     -9.986  0.0000E+00  0.1051E+02
     -9.933  0.7961E-03  0.1051E+02
     -9.880  0.2621E+00  0.1053E+02
     -9.827  0.0000E+00  0.1053E+02
     -9.774  0.2873E-02  0.1053E+02
     -9.722  0.5889E+01  0.1084E+02
     -9.669  0.4188E+00  0.1086E+02
     -9.616  0.0000E+00  0.1086E+02
     -9.563  0.4827E-01  0.1086E+02
     -9.510  0.2055E+01  0.1097E+02
     -9.458  0.1129E+01  0.1103E+02
     -9.405  0.4487E+00  0.1106E+02
     -9.352  0.3150E+01  0.1122E+02
     -9.299  0.1583E+01  0.1131E+02
     -9.246  0.3946E-03  0.1131E+02
     -9.193  0.1694E-06  0.1131E+02
     -9.141  0.1567E+01  0.1139E+02
     -9.088  0.5941E+01  0.1170E+02
     -9.035  0.7331E+00  0.1174E+02
     -8.982  0.1491E+01  0.1182E+02
     -8.929  0.6044E+01  0.1214E+02
     -8.877  0.1578E+01  0.1222E+02
     -8.824  0.7379E-02  0.1222E+02
     -8.771  0.3148E+01  0.1239E+02
     -8.718  0.4409E+00  0.1241E+02
     -8.665  0.1625E+01  0.1250E+02
     -8.612  0.3003E+00  0.1251E+02
     -8.560  0.0000E+00  0.1251E+02
     -8.507  0.2823E-03  0.1251E+02
     -8.454  0.2279E+01  0.1263E+02
     -8.401  0.5502E+01  0.1292E+02
     -8.348  0.5675E+01  0.1322E+02
     -8.296  0.6115E+01  0.1355E+02
     -8.243  0.1728E+01  0.1364E+02
     -8.190  0.3278E-03  0.1364E+02
     -8.137  0.1766E-12  0.1364E+02
     -8.084  0.8744E+00  0.1369E+02
     -8.031  0.7062E+00  0.1372E+02
     -7.979  0.1577E+01  0.1381E+02
     -7.926  0.5851E+01  0.1411E+02
     -7.873  0.4596E+00  0.1414E+02
     -7.820  0.7866E+00  0.1418E+02
     -7.767  0.3155E+01  0.1435E+02
     -7.714  0.2290E-06  0.1435E+02
     -7.662  0.1990E+01  0.1445E+02
     -7.609  0.5895E+01  0.1476E+02
     -7.556  0.7633E+01  0.1517E+02
     -7.503  0.2588E+00  0.1518E+02
     -7.450  0.0000E+00  0.1518E+02
     -7.398  0.2353E-05  0.1518E+02
     -7.345  0.3183E+01  0.1535E+02
     -7.292  0.3262E+01  0.1552E+02
     -7.239  0.4862E+01  0.1578E+02
     -7.186  0.2424E+01  0.1591E+02
     -7.133  0.2339E+01  0.1603E+02
     -7.081  0.2424E+00  0.1604E+02
     -7.028  0.4197E+01  0.1626E+02
     -6.975  0.4492E+01  0.1650E+02
     -6.922  0.2419E+00  0.1651E+02
     -6.869  0.4779E+00  0.1654E+02
     -6.817  0.4095E+01  0.1676E+02
     -6.764  0.1738E+01  0.1685E+02
     -6.711  0.1314E+01  0.1692E+02
     -6.658  0.3725E+01  0.1711E+02
     -6.605  0.2285E+01  0.1723E+02
     -6.552  0.4548E+01  0.1747E+02
     -6.500  0.4827E+01  0.1773E+02
     -6.447  0.5917E+01  0.1804E+02
     -6.394  0.1608E+01  0.1813E+02
     -6.341  0.2946E+01  0.1828E+02
     -6.288  0.4124E+01  0.1850E+02
     -6.236  0.7451E+01  0.1889E+02
     -6.183  0.1437E+01  0.1897E+02
     -6.130  0.5619E+01  0.1927E+02
     -6.077  0.2056E+01  0.1938E+02
     -6.024  0.5187E+00  0.1940E+02
     -5.971  0.5626E+00  0.1943E+02
     -5.919  0.4464E+01  0.1967E+02
     -5.866  0.1029E+01  0.1972E+02
     -5.813  0.3155E+01  0.1989E+02
     -5.760  0.0000E+00  0.1989E+02
     -5.707  0.5724E-05  0.1989E+02
     -5.654  0.6093E+01  0.2021E+02
     -5.602  0.3723E+00  0.2023E+02
     -5.549  0.1423E+01  0.2031E+02
     -5.496  0.3527E-08  0.2031E+02
     -5.443  0.3485E+01  0.2049E+02
     -5.390  0.1248E+01  0.2056E+02
     -5.338  0.1165E-01  0.2056E+02
     -5.285  0.5495E+01  0.2085E+02
     -5.232  0.2557E+01  0.2098E+02
     -5.179  0.4350E+01  0.2121E+02
     -5.126  0.9968E+00  0.2126E+02
     -5.073  0.1142E+02  0.2187E+02
     -5.021  0.9686E+01  0.2238E+02
     -4.968  0.1148E+02  0.2298E+02
     -4.915  0.2659E+01  0.2313E+02
     -4.862  0.4047E+01  0.2334E+02
     -4.809  0.7303E+01  0.2372E+02
     -4.757  0.5302E+01  0.2400E+02
     -4.704  0.4362E+00  0.2403E+02
     -4.651  0.7299E-08  0.2403E+02
     -4.598  0.1511E+01  0.2411E+02
     -4.545  0.3221E+01  0.2428E+02
     -4.492  0.5240E-03  0.2428E+02
     -4.440  0.9144E+01  0.2476E+02
     -4.387  0.1725E+01  0.2485E+02
     -4.334  0.3119E+01  0.2502E+02
     -4.281  0.2114E+00  0.2503E+02
     -4.228  0.1577E+01  0.2511E+02
     -4.175  0.8386E+00  0.2516E+02
     -4.123  0.7392E+00  0.2519E+02
     -4.070  0.4744E+01  0.2545E+02
     -4.017  0.5088E+01  0.2571E+02
     -3.964  0.3134E+01  0.2588E+02
     -3.911  0.2811E+01  0.2603E+02
     -3.859  0.6477E+01  0.2637E+02
     -3.806  0.1411E+01  0.2644E+02
     -3.753  0.2536E+01  0.2658E+02
     -3.700  0.6212E+00  0.2661E+02
     -3.647  0.1283E+01  0.2668E+02
     -3.594  0.1055E+02  0.2724E+02
     -3.542  0.7465E+01  0.2763E+02
     -3.489  0.1354E+01  0.2770E+02
     -3.436  0.3821E+01  0.2790E+02
     -3.383  0.2362E+01  0.2803E+02
     -3.330  0.7869E+01  0.2844E+02
     -3.278  0.3648E+01  0.2864E+02
     -3.225  0.7954E+01  0.2906E+02
     -3.172  0.1614E+01  0.2914E+02
     -3.119  0.1508E+01  0.2922E+02
     -3.066  0.1493E-11  0.2922E+02
     -3.013  0.1155E+01  0.2928E+02
     -2.961  0.2000E+01  0.2939E+02
     -2.908  0.3153E+01  0.2956E+02
     -2.855  0.1577E+01  0.2964E+02
     -2.802  0.3606E-02  0.2964E+02
     -2.749  0.1349E-02  0.2964E+02
     -2.697  0.1578E+01  0.2972E+02
     -2.644  0.1576E+01  0.2981E+02
     -2.591  0.1570E+01  0.2989E+02
     -2.538  0.5645E+00  0.2992E+02
     -2.485  0.1023E+01  0.2997E+02
     -2.432  0.5237E+00  0.3000E+02
     -2.380  0.0000E+00  0.3000E+02
     -2.327  0.0000E+00  0.3000E+02
     -2.274  0.0000E+00  0.3000E+02
     -2.221  0.0000E+00  0.3000E+02
     -2.168  0.0000E+00  0.3000E+02
     -2.115  0.0000E+00  0.3000E+02
     -2.063  0.0000E+00  0.3000E+02
     -2.010  0.0000E+00  0.3000E+02
     -1.957  0.0000E+00  0.3000E+02
     -1.904  0.0000E+00  0.3000E+02
     -1.851  0.2148E-04  0.3000E+02
     -1.799  0.8283E+00  0.3004E+02
     -1.746  0.1538E+01  0.3012E+02
     -1.693  0.5445E-03  0.3013E+02
     -1.640  0.1577E+01  0.3021E+02
     -1.587  0.1708E+01  0.3030E+02
     -1.534  0.4322E+01  0.3053E+02
     -1.482  0.3776E+00  0.3055E+02
     -1.429  0.4636E+01  0.3079E+02
     -1.376  0.8559E-03  0.3079E+02
     -1.323  0.8382E-02  0.3079E+02
     -1.270  0.4681E+01  0.3104E+02
     -1.218  0.6089E-01  0.3104E+02
     -1.165  0.4710E+01  0.3129E+02
     -1.112  0.3482E+01  0.3148E+02
     -1.059  0.2823E+01  0.3162E+02
     -1.006  0.1093E-01  0.3162E+02
     -0.953  0.0000E+00  0.3162E+02
     -0.901  0.7607E-06  0.3163E+02
     -0.848  0.1648E+01  0.3171E+02
     -0.795  0.1507E+01  0.3179E+02
     -0.742  0.0000E+00  0.3179E+02
     -0.689  0.2919E-16  0.3179E+02
     -0.637  0.6251E-01  0.3179E+02
     -0.584  0.3349E+01  0.3197E+02
     -0.531  0.6831E-02  0.3197E+02
     -0.478  0.0000E+00  0.3197E+02
     -0.425  0.0000E+00  0.3197E+02
     -0.372  0.0000E+00  0.3197E+02
     -0.320  0.0000E+00  0.3197E+02
     -0.267  0.0000E+00  0.3197E+02
     -0.214  0.0000E+00  0.3197E+02
     -0.161  0.0000E+00  0.3197E+02
     -0.108  0.0000E+00  0.3197E+02
     -0.055  0.5170E-01  0.3197E+02
     -0.003  0.1000E+01  0.3203E+02
      0.050  0.0000E+00  0.3203E+02
      0.103  0.0000E+00  0.3203E+02
      0.156  0.0000E+00  0.3203E+02
      0.209  0.0000E+00  0.3203E+02
      0.261  0.0000E+00  0.3203E+02
      0.314  0.0000E+00  0.3203E+02
      0.367  0.0000E+00  0.3203E+02
      0.420  0.0000E+00  0.3203E+02
      0.473  0.1077E-07  0.3203E+02
      0.526  0.3007E+01  0.3219E+02
      0.578  0.1482E+00  0.3219E+02
      0.631  0.0000E+00  0.3219E+02
      0.684  0.0000E+00  0.3219E+02
      0.737  0.1006E+00  0.3220E+02
      0.790  0.1477E+01  0.3228E+02
      0.842  0.0000E+00  0.3228E+02
      0.895  0.0000E+00  0.3228E+02
      0.948  0.0000E+00  0.3228E+02
      1.001  0.2154E-10  0.3228E+02
      1.054  0.3710E+01  0.3247E+02
      1.107  0.4588E+01  0.3272E+02
      1.159  0.2388E+01  0.3284E+02
      1.212  0.2456E+01  0.3297E+02
      1.265  0.2408E+01  0.3310E+02
      1.318  0.1068E+01  0.3316E+02
      1.371  0.1268E+01  0.3322E+02
      1.423  0.4654E+01  0.3347E+02
      1.476  0.7207E-01  0.3347E+02
      1.529  0.3717E+00  0.3349E+02
      1.582  0.4361E+01  0.3372E+02
      1.635  0.1771E+01  0.3382E+02
      1.688  0.1384E+01  0.3389E+02
      1.740  0.6204E-11  0.3389E+02
      1.793  0.1328E+01  0.3396E+02
      1.846  0.5128E+00  0.3399E+02
      1.899  0.1496E+01  0.3407E+02
      1.952  0.3512E+01  0.3425E+02
      2.005  0.3143E+01  0.3442E+02
      2.057  0.7923E+00  0.3446E+02
      2.110  0.1583E+01  0.3454E+02
      2.163  0.1724E+01  0.3463E+02
      2.216  0.1422E+01  0.3471E+02
      2.269  0.1657E+01  0.3480E+02
      2.321  0.3076E+01  0.3496E+02
      2.374  0.1035E+00  0.3496E+02
      2.427  0.3081E+01  0.3513E+02
      2.480  0.3126E+01  0.3529E+02
      2.533  0.2966E+00  0.3531E+02
      2.586  0.3692E+01  0.3550E+02
      2.638  0.2322E+01  0.3562E+02
      2.691  0.1940E-12  0.3563E+02
      2.744  0.8822E+00  0.3567E+02
      2.797  0.9781E+00  0.3572E+02
      2.850  0.5784E+01  0.3603E+02
      2.902  0.4605E+01  0.3627E+02
      2.955  0.1161E+01  0.3633E+02
      3.008  0.2892E+01  0.3649E+02
      3.061  0.2636E+00  0.3650E+02
      3.114  0.2143E+00  0.3651E+02
      3.167  0.2941E+01  0.3667E+02
      3.219  0.1605E+01  0.3675E+02
      3.272  0.1550E+01  0.3683E+02
      3.325  0.5916E+01  0.3715E+02
      3.378  0.5125E+01  0.3742E+02
      3.431  0.2699E-02  0.3742E+02
      3.484  0.1298E-02  0.3742E+02
      3.536  0.3154E+01  0.3758E+02
      3.589  0.0000E+00  0.3758E+02
      3.642  0.6760E-02  0.3758E+02
      3.695  0.3149E+01  0.3775E+02
      3.748  0.5933E-01  0.3775E+02
      3.800  0.4056E+01  0.3797E+02
      3.853  0.3773E+01  0.3817E+02
      3.906  0.4635E+00  0.3819E+02
      3.959  0.5403E+01  0.3848E+02
      4.012  0.4442E+00  0.3850E+02
      4.065  0.1209E+01  0.3856E+02
      4.117  0.2240E+01  0.3868E+02
      4.170  0.1283E+01  0.3875E+02
      4.223  0.1522E-03  0.3875E+02
      4.276  0.3186E+01  0.3892E+02
      4.329  0.1547E+01  0.3900E+02
      4.381  0.1162E+01  0.3906E+02
      4.434  0.4995E+01  0.3933E+02
      4.487  0.1403E+01  0.3940E+02
      4.540  0.5905E+00  0.3943E+02
      4.593  0.4724E+01  0.3968E+02
      4.646  0.9570E-02  0.3968E+02
      4.698  0.1588E+01  0.3976E+02
      4.751  0.4022E+01  0.3998E+02
      4.804  0.4908E+01  0.4024E+02
      4.857  0.3681E+01  0.4043E+02
      4.910  0.3154E+01  0.4060E+02
      4.962  0.1372E-02  0.4060E+02
      5.015  0.1676E+01  0.4069E+02
      5.068  0.3057E+01  0.4085E+02
      5.121  0.1106E+01  0.4091E+02
      5.174  0.6354E+01  0.4124E+02
      5.227  0.6737E+01  0.4160E+02
      5.279  0.1482E-02  0.4160E+02
      5.332  0.2458E+01  0.4173E+02
      5.385  0.2219E+01  0.4184E+02
      5.438  0.5574E-01  0.4185E+02
      5.491  0.3983E+00  0.4187E+02
      5.544  0.5912E+01  0.4218E+02
      5.596  0.3774E+01  0.4238E+02
      5.649  0.6233E+01  0.4271E+02
      5.702  0.8156E+00  0.4275E+02
      5.755  0.1800E+01  0.4285E+02
      5.808  0.3154E+01  0.4301E+02
      5.860  0.7932E+00  0.4306E+02
      5.913  0.4945E+01  0.4332E+02
      5.966  0.3830E+01  0.4352E+02
      6.019  0.5147E+01  0.4379E+02
      6.072  0.1955E+01  0.4389E+02
      6.125  0.3677E+01  0.4409E+02
      6.177  0.5429E+01  0.4438E+02
      6.230  0.1307E+01  0.4444E+02
      6.283  0.4512E+01  0.4468E+02
      6.336  0.2330E+01  0.4481E+02
      6.389  0.5694E+01  0.4511E+02
      6.441  0.6108E+00  0.4514E+02
      6.494  0.3159E+01  0.4531E+02
      6.547  0.1181E+02  0.4593E+02
      6.600  0.9211E+01  0.4642E+02
      6.653  0.1585E+01  0.4650E+02
      6.706  0.7892E+00  0.4654E+02
      6.758  0.6514E+01  0.4689E+02
      6.811  0.9223E+01  0.4737E+02
      6.864  0.8290E+00  0.4742E+02
      6.917  0.4515E+01  0.4766E+02
      6.970  0.8259E+01  0.4809E+02
      7.022  0.2203E+01  0.4821E+02
      7.075  0.4852E+01  0.4846E+02
      7.128  0.8564E+01  0.4892E+02
      7.181  0.3447E+01  0.4910E+02
      7.234  0.4787E+01  0.4935E+02
      7.287  0.7811E+01  0.4976E+02
      7.339  0.4732E+01  0.5001E+02
      7.392  0.9649E+00  0.5006E+02
      7.445  0.4485E+01  0.5030E+02
      7.498  0.1504E+02  0.5110E+02
      7.551  0.6049E+01  0.5142E+02
      7.604  0.9316E+01  0.5191E+02
      7.656  0.2017E+01  0.5201E+02
      7.709  0.2621E+01  0.5215E+02
      7.762  0.1578E+01  0.5224E+02
      7.815  0.5931E+01  0.5255E+02
      7.868  0.4169E+01  0.5277E+02
      7.920  0.4215E+01  0.5299E+02
      7.973  0.2956E+01  0.5315E+02
      8.026  0.1185E+02  0.5377E+02
      8.079  0.9004E+01  0.5425E+02
      8.132  0.5484E+01  0.5454E+02
      8.185  0.7509E+01  0.5494E+02
      8.237  0.1175E+02  0.5556E+02
      8.290  0.4701E+01  0.5581E+02
      8.343  0.3388E+01  0.5598E+02
      8.396  0.1020E+02  0.5652E+02
      8.449  0.7659E+01  0.5693E+02
      8.501  0.6527E-01  0.5693E+02
      8.554  0.6262E+01  0.5726E+02
      8.607  0.8727E+01  0.5772E+02
      8.660  0.1123E+02  0.5832E+02
      8.713  0.1124E+02  0.5891E+02
      8.766  0.8978E+01  0.5938E+02
      8.818  0.1100E+01  0.5944E+02
      8.871  0.5790E+01  0.5975E+02
      8.924  0.2192E+01  0.5986E+02
      8.977  0.4158E+01  0.6008E+02
      9.030  0.5053E+01  0.6035E+02
      9.082  0.7728E+01  0.6076E+02
      9.135  0.5197E+01  0.6103E+02
      9.188  0.8567E+01  0.6149E+02
      9.241  0.8260E+01  0.6192E+02
      9.294  0.7954E+01  0.6234E+02
      9.347  0.3183E+01  0.6251E+02
      9.399  0.6306E+01  0.6284E+02
      9.452  0.7178E+01  0.6322E+02
      9.505  0.1464E+02  0.6400E+02
      9.558  0.6995E+01  0.6437E+02
      9.611  0.1844E+00  0.6438E+02
      9.664  0.1151E+01  0.6444E+02
      9.716  0.1247E+02  0.6509E+02
      9.769  0.7206E+01  0.6548E+02
      9.822  0.9040E+01  0.6595E+02
      9.875  0.3210E+01  0.6612E+02
      9.928  0.6239E+01  0.6645E+02
      9.980  0.3237E+01  0.6662E+02
     10.033  0.1885E+01  0.6672E+02
     10.086  0.3620E+01  0.6691E+02
     10.139  0.1755E+01  0.6701E+02
     10.192  0.4590E+01  0.6725E+02
     10.245  0.5302E+01  0.6753E+02
     10.297  0.7299E+01  0.6791E+02
     10.350  0.1538E+01  0.6800E+02
     10.403  0.7038E+01  0.6837E+02
     10.456  0.6054E+01  0.6869E+02
     10.509  0.7761E+01  0.6910E+02
     10.561  0.3264E+01  0.6927E+02
     10.614  0.9238E+01  0.6976E+02
     10.667  0.1707E+01  0.6985E+02
     10.720  0.5221E+00  0.6988E+02
     10.773  0.7296E+01  0.7026E+02
     10.826  0.4045E+01  0.7047E+02
     10.878  0.2332E+01  0.7060E+02
     10.931  0.6669E+01  0.7095E+02
     10.984  0.1257E+01  0.7102E+02
     11.037  0.8269E+01  0.7145E+02
     11.090  0.9557E+01  0.7196E+02
     11.143  0.6297E+01  0.7229E+02
     11.195  0.2929E+00  0.7231E+02
     11.248  0.1556E+01  0.7239E+02
     11.301  0.2400E+01  0.7251E+02
     11.354  0.5724E+01  0.7282E+02
     11.407  0.4008E+01  0.7303E+02
     11.459  0.3141E+01  0.7319E+02
     11.512  0.3638E-03  0.7319E+02
     11.565  0.3252E+01  0.7337E+02
     11.618  0.4636E+01  0.7361E+02
     11.671  0.9813E+00  0.7366E+02
     11.724  0.8613E+01  0.7412E+02
     11.776  0.4935E+01  0.7438E+02
     11.829  0.2406E+01  0.7451E+02
     11.882  0.9451E+01  0.7500E+02
     11.935  0.8254E+01  0.7544E+02
     11.988  0.7086E+01  0.7582E+02
     12.040  0.5258E+01  0.7609E+02
     12.093  0.4394E+01  0.7633E+02
     12.146  0.1842E+02  0.7730E+02
     12.199  0.1374E+02  0.7802E+02
     12.252  0.1007E+00  0.7803E+02
     12.305  0.6245E+01  0.7836E+02
     12.357  0.8252E+01  0.7879E+02
     12.410  0.7852E+01  0.7921E+02
     12.463  0.1296E+01  0.7928E+02
     12.516  0.2021E+01  0.7938E+02
     12.569  0.6701E+01  0.7974E+02
     12.621  0.6269E+01  0.8007E+02
     12.674  0.1009E+02  0.8060E+02
     12.727  0.6463E+01  0.8094E+02
     12.780  0.1563E+01  0.8103E+02
     12.833  0.5256E+01  0.8130E+02
     12.886  0.3444E+01  0.8149E+02
     12.938  0.7399E+01  0.8188E+02
     12.991  0.6154E+01  0.8220E+02
     13.044  0.9976E+01  0.8273E+02
     13.097  0.8688E+01  0.8319E+02
     13.150  0.2556E+01  0.8332E+02
     13.203  0.5363E+01  0.8361E+02
     13.255  0.5373E+01  0.8389E+02
     13.308  0.1080E+02  0.8446E+02
     13.361  0.3640E+01  0.8465E+02
     13.414  0.3186E+01  0.8482E+02
     13.467  0.1885E+01  0.8492E+02
     13.519  0.5551E+01  0.8521E+02
     13.572  0.2041E+01  0.8532E+02
     13.625  0.8132E+01  0.8575E+02
     13.678  0.6443E+01  0.8609E+02
     13.731  0.4340E+01  0.8632E+02
     13.784  0.7148E+01  0.8670E+02
     13.836  0.5471E+01  0.8699E+02
     13.889  0.1110E+02  0.8757E+02
     13.942  0.6671E+01  0.8793E+02
     13.995  0.9540E+01  0.8843E+02
     14.048  0.5490E+01  0.8872E+02
     14.100  0.7493E+01  0.8912E+02
     14.153  0.3639E+01  0.8931E+02
     14.206  0.8325E+01  0.8975E+02
     14.259  0.7152E+01  0.9013E+02
     14.312  0.1216E+02  0.9077E+02
     14.365  0.1154E+02  0.9138E+02
     14.417  0.5244E+01  0.9165E+02
     14.470  0.4564E+01  0.9189E+02
     14.523  0.1107E+02  0.9248E+02
     14.576  0.1698E+01  0.9257E+02
     14.629  0.2408E+01  0.9270E+02
     14.681  0.8335E+01  0.9314E+02
     14.734  0.4246E+01  0.9336E+02
     14.787  0.5252E+00  0.9339E+02
     14.840  0.5845E-01  0.9339E+02
     14.893  0.8836E+01  0.9386E+02
     14.946  0.8326E+01  0.9430E+02
     14.998  0.3654E+01  0.9449E+02
     15.051  0.8649E+01  0.9495E+02
     15.104  0.8999E+01  0.9542E+02
     15.157  0.1788E+01  0.9552E+02
     15.210  0.4898E+01  0.9578E+02
     15.263  0.5314E+01  0.9606E+02
     15.315  0.4295E+01  0.9628E+02
     15.368  0.2981E+01  0.9644E+02
     15.421  0.5431E+01  0.9673E+02
     15.474  0.3032E+01  0.9689E+02
     15.527  0.3683E+01  0.9708E+02
     15.579  0.2615E+01  0.9722E+02
     15.632  0.1779E+01  0.9732E+02
     15.685  0.6392E+01  0.9765E+02
     15.738  0.8096E+01  0.9808E+02
     15.791  0.5770E+01  0.9839E+02
     15.844  0.3265E+01  0.9856E+02
     15.896  0.4948E+01  0.9882E+02
     15.949  0.3145E+01  0.9899E+02
     16.002  0.6288E+01  0.9932E+02
     16.055  0.5665E+01  0.9962E+02
     16.108  0.6522E+01  0.9996E+02
     16.160  0.8387E+01  0.1004E+03
     16.213  0.6782E+01  0.1008E+03
     16.266  0.1304E+01  0.1008E+03
     16.319  0.5022E+01  0.1011E+03
     16.372  0.2227E+01  0.1012E+03
     16.425  0.6256E+01  0.1015E+03
     16.477  0.5218E+01  0.1018E+03
     16.530  0.5511E+01  0.1021E+03
     16.583  0.8327E+01  0.1026E+03
     16.636  0.1288E+02  0.1032E+03
     16.689  0.7175E+01  0.1036E+03
     16.742  0.5367E+01  0.1039E+03
     16.794  0.6500E+01  0.1042E+03
     16.847  0.6044E+01  0.1046E+03
     16.900  0.8245E+01  0.1050E+03
     16.953  0.3562E+01  0.1052E+03
     17.006  0.5483E+01  0.1055E+03
     17.058  0.7894E+01  0.1059E+03
     17.111  0.8177E+01  0.1063E+03
     17.164  0.1082E+02  0.1069E+03
     17.217  0.7741E+01  0.1073E+03
     17.270  0.1376E+02  0.1080E+03
     17.323  0.1588E+01  0.1081E+03
     17.375  0.8676E+01  0.1086E+03
     17.428  0.3841E+01  0.1088E+03
     17.481  0.1247E+02  0.1094E+03
     17.534  0.9602E+01  0.1099E+03
     17.587  0.1044E+02  0.1105E+03
     17.639  0.5005E+01  0.1108E+03
     17.692  0.1589E+01  0.1108E+03
     17.745  0.7003E+01  0.1112E+03
     17.798  0.8868E+00  0.1113E+03
     17.851  0.4791E+01  0.1115E+03
     17.904  0.2508E+01  0.1116E+03
     17.956  0.1672E+01  0.1117E+03
     18.009  0.1102E+02  0.1123E+03
     18.062  0.7056E+01  0.1127E+03
     18.115  0.7110E+01  0.1131E+03
     18.168  0.4946E+01  0.1133E+03
     18.220  0.1080E+02  0.1139E+03
     18.273  0.3414E+01  0.1141E+03
     18.326  0.5240E+00  0.1141E+03
     18.379  0.7810E+01  0.1145E+03
     18.432  0.6170E+01  0.1148E+03
     18.485  0.1239E+02  0.1155E+03
     18.537  0.8684E+01  0.1159E+03
     18.590  0.6313E+01  0.1163E+03
     18.643  0.7845E+01  0.1167E+03
     18.696  0.8274E+01  0.1171E+03
     18.749  0.3776E+01  0.1173E+03
     18.802  0.2640E+01  0.1175E+03
     18.854  0.1383E+02  0.1182E+03
     18.907  0.5225E+01  0.1185E+03
     18.960  0.3599E+01  0.1187E+03
     19.013  0.1370E+02  0.1194E+03
     19.066  0.2568E+01  0.1195E+03
     19.118  0.7349E+01  0.1199E+03
     19.171  0.1329E+02  0.1206E+03
     19.224  0.4332E+01  0.1208E+03
     19.277  0.8433E+01  0.1213E+03