<?xml version="1.0" encoding="ISO-8859-1"?>
<modeling>
 <generator>
  <i name="program" type="string">vasp </i>
  <i name="version" type="string">5.4.4.18Apr17-6-g9f103f2a35  </i>
  <i name="subversion" type="string">(build Mar 30 2023 15:39:25) complex            parallel </i>
  <i name="platform" type="string">LinuxIFC </i>
  <i name="date" type="string">2023 06 28 </i>
  <i name="time" type="string">01:56:18 </i>
 </generator>
 <incar>
  <i type="string" name="SYSTEM"> BC3-optical</i>
  <i type="int" name="ISTART">     1</i>
  <i type="string" name="PREC">accurate</i>
  <i type="string" name="ALGO"> Exact</i>
  <i type="int" name="ICHARG">     2</i>
  <i name="EDIFF">      0.00000001</i>
  <i name="ENCUT">    450.00000000</i>
  <i type="int" name="NBANDS">   448</i>
  <i type="int" name="NEDOS">  2400</i>
  <i type="logical" name="LREAL"> F  </i>
  <i type="int" name="ISMEAR">     0</i>
  <i name="SIGMA">      0.01000000</i>
  <i type="int" name="NWRITE">     3</i>
  <i type="logical" name="LOPTICS"> T  </i>
  <v type="int" name="KPOINT_BSE">    -1     0     0     0</v>
  <i name="CSHIFT">      0.10000000</i>
  <i name="CSHIFT">      0.10000000</i>
 </incar>
 <structure name="primitive_cell" >
  <crystal>
   <varray name="basis" >
    <v>       4.48084843       2.58701885       0.00000000 </v>
    <v>      -4.48084843       2.58701885       0.00000000 </v>
    <v>       0.00000000       0.00000000       8.52022140 </v>
   </varray>
   <i name="volume">    197.53348383 </i>
   <varray name="rec_basis" >
    <v>       0.11158601       0.19327265       0.00000000 </v>
    <v>      -0.11158601       0.19327265       0.00000000 </v>
    <v>       0.00000000       0.00000000       0.11736784 </v>
   </varray>
  </crystal>
  <varray name="positions" >
   <v>       0.33333300      -0.33333400       0.25000000 </v>
   <v>       0.15869124       0.31738348       0.25000000 </v>
   <v>      -0.31738448      -0.15869224       0.25000000 </v>
   <v>       0.15869124      -0.15869224       0.25000000 </v>
   <v>      -0.15869224       0.15869124       0.25000000 </v>
   <v>       0.31738348       0.15869124       0.25000000 </v>
   <v>      -0.15869224      -0.31738448       0.25000000 </v>
   <v>      -0.33333400       0.33333300       0.25000000 </v>
  </varray>
 </structure>
 <varray name="primitive_index" >
  <v type="int" >        1 </v>
  <v type="int" >        3 </v>
  <v type="int" >        7 </v>
  <v type="int" >        5 </v>
  <v type="int" >        6 </v>
  <v type="int" >        4 </v>
  <v type="int" >        8 </v>
  <v type="int" >        2 </v>
 </varray>
 <kpoints>
  <generation param="Gamma">
   <v type="int" name="divisions">      12       12        1 </v>
   <v name="usershift">      0.00000000       0.00000000       0.00000000 </v>
   <v name="genvec1">      0.08333333       0.00000000       0.00000000 </v>
   <v name="genvec2">      0.00000000       0.08333333       0.00000000 </v>
   <v name="genvec3">      0.00000000       0.00000000       1.00000000 </v>
   <v name="shift">      0.00000000       0.00000000       0.00000000 </v>
  </generation>
  <varray name="kpointlist" >
   <v>       0.00000000       0.00000000       0.00000000 </v>
   <v>       0.08333333       0.00000000       0.00000000 </v>
   <v>       0.16666667       0.00000000       0.00000000 </v>
   <v>       0.25000000      -0.00000000       0.00000000 </v>
   <v>       0.33333333      -0.00000000       0.00000000 </v>
   <v>       0.41666667       0.00000000       0.00000000 </v>
   <v>       0.50000000      -0.00000000       0.00000000 </v>
   <v>       0.08333333       0.08333333       0.00000000 </v>
   <v>       0.16666667       0.08333333       0.00000000 </v>
   <v>       0.25000000       0.08333333       0.00000000 </v>
   <v>       0.33333333       0.08333333       0.00000000 </v>
   <v>       0.41666667       0.08333333       0.00000000 </v>
   <v>       0.16666667       0.16666667       0.00000000 </v>
   <v>       0.25000000       0.16666667       0.00000000 </v>
   <v>       0.33333333       0.16666667       0.00000000 </v>
   <v>       0.41666667       0.16666667       0.00000000 </v>
   <v>       0.25000000       0.25000000       0.00000000 </v>
   <v>       0.33333333       0.25000000       0.00000000 </v>
   <v>       0.33333333       0.33333333       0.00000000 </v>
  </varray>
  <varray name="weights" >
   <v>       0.00694444 </v>
   <v>       0.04166667 </v>
   <v>       0.04166667 </v>
   <v>       0.04166667 </v>
   <v>       0.04166667 </v>
   <v>       0.04166667 </v>
   <v>       0.02083333 </v>
   <v>       0.04166667 </v>
   <v>       0.08333333 </v>
   <v>       0.08333333 </v>
   <v>       0.08333333 </v>
   <v>       0.08333333 </v>
   <v>       0.04166667 </v>
   <v>       0.08333333 </v>
   <v>       0.08333333 </v>
   <v>       0.04166667 </v>
   <v>       0.04166667 </v>
   <v>       0.08333333 </v>
   <v>       0.01388889 </v>
  </varray>
 </kpoints>
 <parameters>
  <separator name="general" >
   <i type="string" name="SYSTEM">BC3-optical</i>
   <i type="logical" name="LCOMPAT"> F  </i>
  </separator>
  <separator name="electronic" >
   <i type="string" name="PREC">accura</i>
   <i name="ENMAX">    450.00000000</i>
   <i name="ENAUG">    644.87300000</i>
   <i name="EDIFF">      0.00000001</i>
   <i type="int" name="IALGO">    90</i>
   <i type="int" name="IWAVPR">    10</i>
   <i type="int" name="NBANDS">   456</i>
   <i name="NELECT">     30.00000000</i>
   <i type="int" name="TURBO">     0</i>
   <i type="int" name="IRESTART">     0</i>
   <i type="int" name="NREBOOT">     0</i>
   <i type="int" name="NMIN">     0</i>
   <i name="EREF">      0.00000000</i>
   <separator name="electronic smearing" >
    <i type="int" name="ISMEAR">     0</i>
    <i name="SIGMA">      0.01000000</i>
    <i name="KSPACING">      0.50000000</i>
    <i type="logical" name="KGAMMA"> T  </i>
   </separator>
   <separator name="electronic projectors" >
    <i type="logical" name="LREAL"> F  </i>
    <v name="ROPT">      0.00000000      0.00000000</v>
    <i type="int" name="LMAXPAW">  -100</i>
    <i type="int" name="LMAXMIX">     2</i>
    <i type="logical" name="NLSPLINE"> F  </i>
   </separator>
   <separator name="electronic startup" >
    <i type="int" name="ISTART">     1</i>
    <i type="int" name="ICHARG">     2</i>
    <i type="int" name="INIWAV">     1</i>
   </separator>
   <separator name="electronic spin" >
    <i type="int" name="ISPIN">     1</i>
    <i type="logical" name="LNONCOLLINEAR"> F  </i>
    <v name="MAGMOM">      1.00000000      1.00000000      1.00000000      1.00000000      1.00000000      1.00000000      1.00000000      1.00000000</v>
    <i name="NUPDOWN">     -1.00000000</i>
    <i type="logical" name="LSORBIT"> F  </i>
    <v name="SAXIS">      0.00000000      0.00000000      1.00000000</v>
    <i type="logical" name="LSPIRAL"> F  </i>
    <v name="QSPIRAL">      0.00000000      0.00000000      0.00000000</v>
    <i type="logical" name="LZEROZ"> F  </i>
   </separator>
   <separator name="electronic exchange-correlation" >
    <i type="logical" name="LASPH"> F  </i>
    <i type="logical" name="LMETAGGA"> F  </i>
   </separator>
   <separator name="electronic convergence" >
    <i type="int" name="NELM">    60</i>
    <i type="int" name="NELMDL">     0</i>
    <i type="int" name="NELMIN">     2</i>
    <i name="ENINI">    450.00000000</i>
    <separator name="electronic convergence detail" >
     <i type="logical" name="LDIAG"> T  </i>
     <i type="logical" name="LSUBROT"> F  </i>
     <i name="WEIMIN">      0.00000000</i>
     <i name="EBREAK">      0.00000000</i>
     <i name="DEPER">      0.30000000</i>
     <i type="int" name="NRMM">     4</i>
     <i name="TIME">      0.40000000</i>
    </separator>
   </separator>
   <separator name="electronic mixer" >
    <i name="AMIX">      0.40000000</i>
    <i name="BMIX">      1.00000000</i>
    <i name="AMIN">      0.10000000</i>
    <i name="AMIX_MAG">      1.60000000</i>
    <i name="BMIX_MAG">      1.00000000</i>
    <separator name="electronic mixer details" >
     <i type="int" name="IMIX">     4</i>
     <i type="logical" name="MIXFIRST"> F  </i>
     <i type="int" name="MAXMIX">   -45</i>
     <i name="WC">    100.00000000</i>
     <i type="int" name="INIMIX">     1</i>
     <i type="int" name="MIXPRE">     1</i>
     <i type="int" name="MREMOVE">     5</i>
    </separator>
   </separator>
   <separator name="electronic dipolcorrection" >
    <i type="logical" name="LDIPOL"> F  </i>
    <i type="logical" name="LMONO"> F  </i>
    <i type="int" name="IDIPOL">     0</i>
    <i name="EPSILON">      1.00000000</i>
    <v name="DIPOL">   -100.00000000   -100.00000000   -100.00000000</v>
    <i name="EFIELD">      0.00000000</i>
   </separator>
  </separator>
  <separator name="grids" >
   <i type="int" name="NGX">    36</i>
   <i type="int" name="NGY">    36</i>
   <i type="int" name="NGZ">    60</i>
   <i type="int" name="NGXF">    72</i>
   <i type="int" name="NGYF">    72</i>
   <i type="int" name="NGZF">   120</i>
   <i type="logical" name="ADDGRID"> F  </i>
  </separator>
  <separator name="ionic" >
   <i type="int" name="NSW">     0</i>
   <i type="int" name="IBRION">    -1</i>
   <i type="int" name="MDALGO">     0</i>
   <i type="int" name="ISIF">     2</i>
   <i name="PSTRESS">      0.00000000</i>
   <i name="EDIFFG">      0.00000010</i>
   <i type="int" name="NFREE">     0</i>
   <i name="POTIM">      0.50000000</i>
   <i name="SMASS">     -3.00000000</i>
   <i name="SCALEE">      1.00000000</i>
  </separator>
  <separator name="ionic md" >
   <i name="TEBEG">      0.00010000</i>
   <i name="TEEND">      0.00010000</i>
   <i type="int" name="NBLOCK">     1</i>
   <i type="int" name="KBLOCK">     1</i>
   <i type="int" name="NPACO">   256</i>
   <i name="APACO">     16.00000000</i>
  </separator>
  <separator name="symmetry" >
   <i type="int" name="ISYM">     2</i>
   <i name="SYMPREC">      0.00001000</i>
  </separator>
  <separator name="dos" >
   <i type="int" name="LORBIT">     0</i>
   <v name="RWIGS">     -1.00000000     -1.00000000</v>
   <i type="int" name="NEDOS">  2400</i>
   <i name="EMIN">     10.00000000</i>
   <i name="EMAX">    -10.00000000</i>
   <i name="EFERMI">      0.00000000</i>
  </separator>
  <separator name="writing" >
   <i type="int" name="NWRITE">     3</i>
   <i type="logical" name="LWAVE"> T  </i>
   <i type="logical" name="LDOWNSAMPLE"> F  </i>
   <i type="logical" name="LCHARG"> T  </i>
   <i type="logical" name="LPARD"> F  </i>
   <i type="logical" name="LVTOT"> F  </i>
   <i type="logical" name="LVHAR"> F  </i>
   <i type="logical" name="LELF"> F  </i>
   <i type="logical" name="LOPTICS"> T  </i>
   <v name="STM">      0.00000000      0.00000000      0.00000000      0.00000000      0.00000000      0.00000000      0.00000000</v>
  </separator>
  <separator name="performance" >
   <i type="int" name="NPAR">    12</i>
   <i type="int" name="NSIM">     4</i>
   <i type="int" name="NBLK">    -1</i>
   <i type="logical" name="LPLANE"> T  </i>
   <i type="logical" name="LSCALAPACK"> T  </i>
   <i type="logical" name="LSCAAWARE"> T  </i>
   <i type="logical" name="LSCALU"> F  </i>
   <i type="logical" name="LASYNC"> F  </i>
   <i type="logical" name="LORBITALREAL"> F  </i>
  </separator>
  <separator name="miscellaneous" >
   <i type="int" name="IDIOT">     3</i>
   <i type="int" name="ISPECIAL">     0</i>
   <i type="logical" name="LMUSIC"> F  </i>
   <v name="POMASS">     10.81100000     12.01100000</v>
   <v name="DARWINR">      0.00000000      0.00000000</v>
   <v name="DARWINV">      1.00000000      1.00000000</v>
   <i type="logical" name="LCORR"> T  </i>
  </separator>
  <i type="logical" name="GGA_COMPAT"> T  </i>
  <i type="logical" name="LBERRY"> F  </i>
  <i type="int" name="ICORELEVEL">     0</i>
  <i type="logical" name="LDAU"> F  </i>
  <i type="int" name="I_CONSTRAINED_M">     0</i>
  <separator name="electronic exchange-correlation" >
   <i type="string" name="GGA">--</i>
   <i type="int" name="VOSKOWN">     0</i>
   <i type="logical" name="LHFCALC"> F  </i>
   <i type="string" name="PRECFOCK"></i>
   <i type="logical" name="LSYMGRAD"> F  </i>
   <i type="logical" name="LHFONE"> F  </i>
   <i type="logical" name="LRHFCALC"> F  </i>
   <i type="logical" name="LTHOMAS"> F  </i>
   <i type="logical" name="LMODELHF"> F  </i>
   <i name="ENCUT4O">     -1.00000000</i>
   <i type="int" name="EXXOEP">     0</i>
   <i type="int" name="FOURORBIT">     0</i>
   <i name="AEXX">      0.00000000</i>
   <i name="HFALPHA">      0.00000000</i>
   <i name="MCALPHA">      0.00000000</i>
   <i name="ALDAX">      1.00000000</i>
   <i name="AGGAX">      1.00000000</i>
   <i name="ALDAC">      1.00000000</i>
   <i name="AGGAC">      1.00000000</i>
   <i type="int" name="NKREDX">     1</i>
   <i type="int" name="NKREDY">     1</i>
   <i type="int" name="NKREDZ">     1</i>
   <i type="logical" name="SHIFTRED"> F  </i>
   <i type="logical" name="ODDONLY"> F  </i>
   <i type="logical" name="EVENONLY"> F  </i>
   <i type="int" name="LMAXFOCK">     0</i>
   <i type="int" name="NMAXFOCKAE">     0</i>
   <i type="logical" name="LFOCKAEDFT"> F  </i>
   <i name="HFSCREEN">      0.00000000</i>
   <i name="HFSCREENC">      0.00000000</i>
   <i type="int" name="NBANDSGWLOW">     0</i>
  </separator>
  <separator name="vdW DFT" >
   <i type="logical" name="LUSE_VDW"> F  </i>
   <i name="Zab_VDW">     -0.84910000</i>
   <i name="PARAM1">      0.12340000</i>
   <i name="PARAM2">      1.00000000</i>
   <i name="PARAM3">      0.00000000</i>
  </separator>
  <separator name="model GW" >
   <i type="int" name="MODEL_GW">     0</i>
   <i name="MODEL_EPS0">     14.81501129</i>
   <i name="MODEL_ALPHA">      1.00000000</i>
  </separator>
  <separator name="linear response parameters" >
   <i type="logical" name="LEPSILON"> F  </i>
   <i type="logical" name="LRPA"> F  </i>
   <i type="logical" name="LNABLA"> F  </i>
   <i type="logical" name="LVEL"> F  </i>
   <i type="int" name="KINTER">     0</i>
   <i name="CSHIFT">      0.10000000</i>
   <i name="OMEGAMAX">     -1.00000000</i>
   <i name="DEG_THRESHOLD">      0.00200000</i>
   <i name="RTIME">     -0.10000000</i>
   <i name="WPLASMAI">      0.00000000</i>
   <v name="DFIELD">      0.00000000      0.00000000      0.00000000</v>
   <v name="WPLASMA">      0.00000000      0.00000000      0.00000000      0.00000000      0.00000000      0.00000000      0.00000000      0.00000000      0.00000000</v>
  </separator>
  <separator name="orbital magnetization" >
   <i type="logical" name="NUCIND"> F  </i>
   <v name="MAGPOS">      0.00000000      0.00000000      0.00000000</v>
   <i type="logical" name="LNICSALL"> T  </i>
   <i type="logical" name="ORBITALMAG"> F  </i>
   <i type="logical" name="LMAGBLOCH"> F  </i>
   <i type="logical" name="LCHIMAG"> F  </i>
   <i type="logical" name="LGAUGE"> T  </i>
   <i type="int" name="MAGATOM">     0</i>
   <v name="MAGDIPOL">      0.00000000      0.00000000      0.00000000</v>
   <v name="AVECCONST">      0.00000000      0.00000000      0.00000000</v>
  </separator>
  <separator name="response functions" >
   <i type="logical" name="LADDER"> F  </i>
   <i type="logical" name="LRPAFORCE"> F  </i>
   <i type="logical" name="LFXC"> F  </i>
   <i type="logical" name="LHARTREE"> T  </i>
   <i type="int" name="IBSE">     0</i>
   <v type="int" name="KPOINT">    -1     0     0     0</v>
   <i type="logical" name="LTCTE"> F  </i>
   <i type="logical" name="LTETE"> F  </i>
   <i type="logical" name="LTRIPLET"> F  </i>
   <i type="logical" name="LFXCEPS"> F  </i>
   <i type="logical" name="LFXHEG"> F  </i>
   <i type="int" name="NATURALO">     2</i>
   <i type="logical" name="L2ORDER"> F  </i>
   <i type="logical" name="LMP2LT"> F  </i>
   <i type="logical" name="LUSEW"> F  </i>
   <i name="ENCUTGW">     -2.00000000</i>
   <i name="ENCUTGWSOFT">     -2.00000000</i>
   <i name="ENCUTLF">     -1.00000000</i>
   <i type="int" name="LMAXMP2">    -1</i>
   <i name="SCISSOR">      0.00000000</i>
   <i type="int" name="NOMEGA">     0</i>
   <i type="int" name="NOMEGAR">     0</i>
   <i type="int" name="NBANDSGW">    -1</i>
   <i type="int" name="NBANDSO">    -1</i>
   <i type="int" name="NBANDSV">    -1</i>
   <i type="int" name="NELM">     1</i>
   <i type="int" name="NELMHF">     1</i>
   <i type="int" name="DIM">     3</i>
   <i type="int" name="ANTIRES">     0</i>
   <i name="OMEGAMAX">    -30.00000000</i>
   <i name="OMEGAMIN">    -30.00000000</i>
   <i name="OMEGATL">   -200.00000000</i>
   <i type="int" name="OMEGAGRID">   140</i>
   <i name="CSHIFT">      0.10000000</i>
   <i type="logical" name="SELFENERGY"> F  </i>
   <i type="logical" name="LSPECTRAL"> F  </i>
   <i type="logical" name="LSPECTRALGW"> F  </i>
   <i type="logical" name="LSINGLES"> F  </i>
   <i type="logical" name="LFERMIGW"> F  </i>
   <i type="logical" name="ODDONLYGW"> F  </i>
   <i type="logical" name="EVENONLYGW"> F  </i>
   <i type="int" name="NKREDLFX">     1</i>
   <i type="int" name="NKREDLFY">     1</i>
   <i type="int" name="NKREDLFZ">     1</i>
   <i type="int" name="MAXMEM">  2800</i>
   <i type="int" name="TELESCOPE">     0</i>
   <i type="int" name="TAUPAR">     1</i>
   <i type="int" name="OMEGAPAR">    -1</i>
   <i name="LAMBDA">      1.00000000</i>
  </separator>
  <separator name="External order field" >
   <i name="OFIELD_KAPPA">      0.00000000</i>
   <v name="OFIELD_K">      0.00000000      0.00000000      0.00000000</v>
   <i name="OFIELD_Q6_NEAR">      0.00000000</i>
   <i name="OFIELD_Q6_FAR">      0.00000000</i>
   <i name="OFIELD_A">      0.00000000</i>
  </separator>
 </parameters>
 <atominfo>
  <atoms>       8 </atoms>
  <types>       2 </types>
  <array name="atoms" >
   <dimension dim="1">ion</dimension>
   <field type="string">element</field>
   <field type="int">atomtype</field>
   <set>
    <rc><c>B </c><c>   1</c></rc>
    <rc><c>B </c><c>   1</c></rc>
    <rc><c>C </c><c>   2</c></rc>
    <rc><c>C </c><c>   2</c></rc>
    <rc><c>C </c><c>   2</c></rc>
    <rc><c>C </c><c>   2</c></rc>
    <rc><c>C </c><c>   2</c></rc>
    <rc><c>C </c><c>   2</c></rc>
   </set>
  </array>
  <array name="atomtypes" >
   <dimension dim="1">type</dimension>
   <field type="int">atomspertype</field>
   <field type="string">element</field>
   <field>mass</field>
   <field>valence</field>
   <field type="string">pseudopotential</field>
   <set>
    <rc><c>   2</c><c>B </c><c>     10.81100000</c><c>      3.00000000</c><c>  PAW_PBE B 06Sep2000                   </c></rc>
    <rc><c>   6</c><c>C </c><c>     12.01100000</c><c>      4.00000000</c><c>  PAW_PBE C 08Apr2002                   </c></rc>
   </set>
  </array>
 </atominfo>
 <structure name="initialpos" >
  <crystal>
   <varray name="basis" >
    <v>       4.48084843       2.58701885       0.00000000 </v>
    <v>      -4.48084843       2.58701885       0.00000000 </v>
    <v>       0.00000000       0.00000000       8.52022140 </v>
   </varray>
   <i name="volume">    197.53348383 </i>
   <varray name="rec_basis" >
    <v>       0.11158601       0.19327265       0.00000000 </v>
    <v>      -0.11158601       0.19327265       0.00000000 </v>
    <v>       0.00000000       0.00000000       0.11736784 </v>
   </varray>
  </crystal>
  <varray name="positions" >
   <v>       0.33333300       0.66666600       0.25000000 </v>
   <v>       0.66666600       0.33333300       0.25000000 </v>
   <v>       0.15869124       0.31738348       0.25000000 </v>
   <v>       0.31738348       0.15869124       0.25000000 </v>
   <v>       0.15869124       0.84130776       0.25000000 </v>
   <v>       0.84130776       0.15869124       0.25000000 </v>
   <v>       0.68261552       0.84130776       0.25000000 </v>
   <v>       0.84130776       0.68261552       0.25000000 </v>
  </varray>
 </structure>
 <calculation>
  <scstep>
   <time name="diag">  528.58  528.62</time>
   <time name="total">  528.68  528.72</time>
   <energy>
    <i name="alphaZ">     25.67921176 </i>
    <i name="ewald">    700.27145080 </i>
    <i name="hartreedc">  -1524.76618073 </i>
    <i name="XCdc">     91.14273073 </i>
    <i name="pawpsdc">    738.13200929 </i>
    <i name="pawaedc">   -739.83780425 </i>
    <i name="eentropy">     -0.00000000 </i>
    <i name="bandstr">   -389.26594481 </i>
    <i name="atom">   1025.20389953 </i>
    <i name="e_fr_energy">    -73.44062769 </i>
    <i name="e_wo_entrp">    -73.44062769 </i>
    <i name="e_0_energy">    -73.44062769 </i>
   </energy>
  </scstep>
  <scstep>
   <time name="diag">  553.18  553.22</time>
   <time name="total">  553.30  553.34</time>
   <energy>
    <i name="e_fr_energy">    -68.99901163 </i>
    <i name="e_wo_entrp">    -68.99901163 </i>
    <i name="e_0_energy">    -68.99901163 </i>
   </energy>
  </scstep>
  <scstep>
   <time name="diag">  537.15  537.19</time>
   <time name="total">  537.27  537.31</time>
   <energy>
    <i name="e_fr_energy">    -67.35394036 </i>
    <i name="e_wo_entrp">    -67.35394036 </i>
    <i name="e_0_energy">    -67.35394036 </i>
   </energy>
  </scstep>
  <scstep>
   <time name="diag">  548.64  548.67</time>
   <time name="total">  548.75  548.79</time>
   <energy>
    <i name="e_fr_energy">    -67.24757337 </i>
    <i name="e_wo_entrp">    -67.24757337 </i>
    <i name="e_0_energy">    -67.24757337 </i>
   </energy>
  </scstep>
  <scstep>
   <time name="diag">  568.92  568.96</time>
   <time name="total">  569.04  569.07</time>
   <energy>
    <i name="e_fr_energy">    -67.22049319 </i>
    <i name="e_wo_entrp">    -67.22049319 </i>
    <i name="e_0_energy">    -67.22049319 </i>
   </energy>
  </scstep>
  <scstep>
   <time name="diag">  554.90  554.94</time>
   <time name="total">  555.02  555.06</time>
   <energy>
    <i name="e_fr_energy">    -67.21907962 </i>
    <i name="e_wo_entrp">    -67.21907962 </i>
    <i name="e_0_energy">    -67.21907962 </i>
   </energy>
  </scstep>
  <scstep>
   <time name="diag">  558.43  558.46</time>
   <time name="total">  558.54  558.58</time>
   <energy>
    <i name="e_fr_energy">    -67.22295241 </i>
    <i name="e_wo_entrp">    -67.22295241 </i>
    <i name="e_0_energy">    -67.22295241 </i>
   </energy>
  </scstep>
  <scstep>
   <time name="diag">  547.88  547.91</time>
   <time name="total">  547.99  548.03</time>
   <energy>
    <i name="e_fr_energy">    -67.22702477 </i>
    <i name="e_wo_entrp">    -67.22702477 </i>
    <i name="e_0_energy">    -67.22702477 </i>
   </energy>
  </scstep>
  <scstep>
   <time name="diag">  543.39  543.43</time>
   <time name="total">  543.50  543.54</time>
   <energy>
    <i name="e_fr_energy">    -67.22770203 </i>
    <i name="e_wo_entrp">    -67.22770203 </i>
    <i name="e_0_energy">    -67.22770203 </i>
   </energy>
  </scstep>
  <scstep>
   <time name="diag">  546.66  546.69</time>
   <time name="total">  546.77  546.81</time>
   <energy>
    <i name="e_fr_energy">    -67.22771724 </i>
    <i name="e_wo_entrp">    -67.22771724 </i>
    <i name="e_0_energy">    -67.22771724 </i>
   </energy>
  </scstep>
  <scstep>
   <time name="diag">  545.65  545.69</time>
   <time name="total">  545.76  545.80</time>
   <energy>
    <i name="e_fr_energy">    -67.22773009 </i>
    <i name="e_wo_entrp">    -67.22773009 </i>
    <i name="e_0_energy">    -67.22773009 </i>
   </energy>
  </scstep>
  <scstep>
   <time name="diag">  545.42  545.45</time>
   <time name="total">  545.53  545.57</time>
   <energy>
    <i name="e_fr_energy">    -67.22773016 </i>
    <i name="e_wo_entrp">    -67.22773016 </i>
    <i name="e_0_energy">    -67.22773016 </i>
   </energy>
  </scstep>
  <scstep>
   <time name="diag">  545.51  545.54</time>
   <time name="total">  545.62  545.66</time>
   <energy>
    <i name="e_fr_energy">    -67.22773024 </i>
    <i name="e_wo_entrp">    -67.22773024 </i>
    <i name="e_0_energy">    -67.22773024 </i>
   </energy>
  </scstep>
  <scstep>
   <time name="diag">  545.62  545.66</time>
   <time name="total">  545.67  545.71</time>
   <energy>
    <i name="alphaZ">     25.67921176 </i>
    <i name="ewald">    700.27145080 </i>
    <i name="hartreedc">  -1646.75291200 </i>
    <i name="XCdc">     96.02426133 </i>
    <i name="pawpsdc">   2894.38113017 </i>
    <i name="pawaedc">  -2896.90834126 </i>
    <i name="eentropy">     -0.00000000 </i>
    <i name="bandstr">   -265.12643058 </i>
    <i name="atom">   1025.20389953 </i>
    <i name="e_fr_energy">    -67.22773025 </i>
    <i name="e_wo_entrp">    -67.22773025 </i>
    <i name="e_0_energy">    -67.22773025 </i>
   </energy>
  </scstep>
  <structure>
   <crystal>
    <varray name="basis" >
     <v>       4.48084843       2.58701885       0.00000000 </v>
     <v>      -4.48084843       2.58701885       0.00000000 </v>
     <v>       0.00000000       0.00000000       8.52022140 </v>
    </varray>
    <i name="volume">    197.53348383 </i>
    <varray name="rec_basis" >
     <v>       0.11158601       0.19327265       0.00000000 </v>
     <v>      -0.11158601       0.19327265       0.00000000 </v>
     <v>       0.00000000       0.00000000       0.11736784 </v>
    </varray>
   </crystal>
   <varray name="positions" >
    <v>       0.33333300       0.66666600       0.25000000 </v>
    <v>       0.66666600       0.33333300       0.25000000 </v>
    <v>       0.15869124       0.31738348       0.25000000 </v>
    <v>       0.31738348       0.15869124       0.25000000 </v>
    <v>       0.15869124       0.84130776       0.25000000 </v>
    <v>       0.84130776       0.15869124       0.25000000 </v>
    <v>       0.68261552       0.84130776       0.25000000 </v>
    <v>       0.84130776       0.68261552       0.25000000 </v>
   </varray>
  </structure>
  <varray name="forces" >
   <v>       0.00000000       0.00000000       0.00000000 </v>
   <v>       0.00000000      -0.00000000       0.00000000 </v>
   <v>      -0.00064694       0.00112054      -0.00000000 </v>
   <v>       0.00064694       0.00112054      -0.00000000 </v>
   <v>       0.00129389      -0.00000000       0.00000000 </v>
   <v>      -0.00129389       0.00000000       0.00000000 </v>
   <v>      -0.00064694      -0.00112054      -0.00000000 </v>
   <v>       0.00064694      -0.00112054      -0.00000000 </v>
  </varray>
  <varray name="stress" >
   <v>      -0.53277496       0.00000000       0.00000000 </v>
   <v>       0.00000000      -0.53277488      -0.00000000 </v>
   <v>       0.00000000      -0.00000000      -1.27118547 </v>
  </varray>
  <energy>
   <i name="e_fr_energy">    -67.22773025 </i>
   <i name="e_wo_entrp">    -67.22773025 </i>
   <i name="e_0_energy">     -0.00000000 </i>
  </energy>
  <time name="totalsc"> 7677.86 7680.78</time>
  <eigenvalues>
   <array>
    <dimension dim="1">band</dimension>
    <dimension dim="2">kpoint</dimension>
    <dimension dim="3">spin</dimension>
    <field>eigene</field>
    <field>occ</field>
    <set>
     <set comment="spin 1">
      <set comment="kpoint 1">
       <r>  -18.5403    1.0000 </r>
       <r>  -14.6488    1.0000 </r>
       <r>  -14.6488    1.0000 </r>
       <r>  -12.2992    1.0000 </r>
       <r>  -12.2992    1.0000 </r>
       <r>  -11.2307    1.0000 </r>
       <r>   -9.9135    1.0000 </r>
       <r>   -7.3452    1.0000 </r>
       <r>   -7.1249    1.0000 </r>
       <r>   -4.9710    1.0000 </r>
       <r>   -4.9710    1.0000 </r>
       <r>   -3.1493    1.0000 </r>
       <r>   -3.1492    1.0000 </r>
       <r>   -2.4667    1.0000 </r>
       <r>   -2.4666    1.0000 </r>
       <r>   -0.6315    0.0000 </r>
       <r>    1.1011    0.0000 </r>
       <r>    1.1012    0.0000 </r>
       <r>    1.7906    0.0000 </r>
       <r>    1.9217    0.0000 </r>
       <r>    4.5207    0.0000 </r>
       <r>    5.9130    0.0000 </r>
       <r>    6.3151    0.0000 </r>
       <r>    6.3151    0.0000 </r>
       <r>    7.6726    0.0000 </r>
       <r>    8.0796    0.0000 </r>
       <r>    8.0797    0.0000 </r>
       <r>    8.9955    0.0000 </r>
       <r>    9.1419    0.0000 </r>
       <r>    9.1419    0.0000 </r>
       <r>    9.2976    0.0000 </r>
       <r>    9.2976    0.0000 </r>
       <r>    9.5160    0.0000 </r>
       <r>   10.3273    0.0000 </r>
       <r>   10.6836    0.0000 </r>
       <r>   10.6836    0.0000 </r>
       <r>   11.3540    0.0000 </r>
       <r>   11.3541    0.0000 </r>
       <r>   11.3922    0.0000 </r>
       <r>   11.3995    0.0000 </r>
       <r>   11.9841    0.0000 </r>
       <r>   13.0008    0.0000 </r>
       <r>   13.0008    0.0000 </r>
       <r>   13.0285    0.0000 </r>
       <r>   13.1319    0.0000 </r>
       <r>   13.1319    0.0000 </r>
       <r>   13.1825    0.0000 </r>
       <r>   13.5279    0.0000 </r>
       <r>   15.6135    0.0000 </r>
       <r>   15.8008    0.0000 </r>
       <r>   15.8008    0.0000 </r>
       <r>   16.4913    0.0000 </r>
       <r>   18.2923    0.0000 </r>
       <r>   18.2923    0.0000 </r>
       <r>   18.8601    0.0000 </r>
       <r>   18.8602    0.0000 </r>
       <r>   19.1473    0.0000 </r>
       <r>   19.2290    0.0000 </r>
       <r>   19.5333    0.0000 </r>
       <r>   19.5333    0.0000 </r>
       <r>   19.7217    0.0000 </r>
       <r>   19.9888    0.0000 </r>
       <r>   19.9888    0.0000 </r>
       <r>   20.0167    0.0000 </r>
       <r>   20.4546    0.0000 </r>
       <r>   21.0813    0.0000 </r>
       <r>   21.3027    0.0000 </r>
       <r>   21.3027    0.0000 </r>
       <r>   22.8793    0.0000 </r>
       <r>   23.2968    0.0000 </r>
       <r>   23.2968    0.0000 </r>
       <r>   23.4397    0.0000 </r>
       <r>   23.4397    0.0000 </r>
       <r>   23.5738    0.0000 </r>
       <r>   24.0936    0.0000 </r>
       <r>   24.0936    0.0000 </r>
       <r>   24.4126    0.0000 </r>
       <r>   24.4126    0.0000 </r>
       <r>   24.5372    0.0000 </r>
       <r>   24.6374    0.0000 </r>
       <r>   24.8763    0.0000 </r>
       <r>   25.2174    0.0000 </r>
       <r>   25.2174    0.0000 </r>
       <r>   26.6516    0.0000 </r>
       <r>   26.6516    0.0000 </r>
       <r>   26.7538    0.0000 </r>
       <r>   26.7538    0.0000 </r>
       <r>   26.8463    0.0000 </r>
       <r>   27.0341    0.0000 </r>
       <r>   27.1216    0.0000 </r>
       <r>   27.7308    0.0000 </r>
       <r>   27.7308    0.0000 </r>
       <r>   27.7998    0.0000 </r>
       <r>   27.7998    0.0000 </r>
       <r>   27.8401    0.0000 </r>
       <r>   28.2967    0.0000 </r>
       <r>   28.2967    0.0000 </r>
       <r>   28.7936    0.0000 </r>
       <r>   28.7936    0.0000 </r>
       <r>   28.9524    0.0000 </r>
       <r>   29.6489    0.0000 </r>
       <r>   30.2897    0.0000 </r>
       <r>   31.1920    0.0000 </r>
       <r>   31.1920    0.0000 </r>
       <r>   31.4239    0.0000 </r>
       <r>   31.4816    0.0000 </r>
       <r>   31.4816    0.0000 </r>
       <r>   31.8841    0.0000 </r>
       <r>   32.0865    0.0000 </r>
       <r>   32.0865    0.0000 </r>
       <r>   32.4044    0.0000 </r>
       <r>   32.6844    0.0000 </r>
       <r>   33.2983    0.0000 </r>
       <r>   33.2983    0.0000 </r>
       <r>   33.3127    0.0000 </r>
       <r>   33.3127    0.0000 </r>
       <r>   33.4606    0.0000 </r>
       <r>   34.0099    0.0000 </r>
       <r>   34.9816    0.0000 </r>
       <r>   34.9816    0.0000 </r>
       <r>   35.0442    0.0000 </r>
       <r>   35.0442    0.0000 </r>
       <r>   35.2268    0.0000 </r>
       <r>   35.2268    0.0000 </r>
       <r>   35.8334    0.0000 </r>
       <r>   35.8655    0.0000 </r>
       <r>   35.8655    0.0000 </r>
       <r>   36.0454    0.0000 </r>
       <r>   36.6964    0.0000 </r>
       <r>   36.6964    0.0000 </r>
       <r>   37.0546    0.0000 </r>
       <r>   37.3010    0.0000 </r>
       <r>   37.3124    0.0000 </r>
       <r>   37.3124    0.0000 </r>
       <r>   37.3416    0.0000 </r>
       <r>   37.3416    0.0000 </r>
       <r>   37.3663    0.0000 </r>
       <r>   37.4564    0.0000 </r>
       <r>   37.4564    0.0000 </r>
       <r>   37.6595    0.0000 </r>
       <r>   37.8898    0.0000 </r>
       <r>   37.9469    0.0000 </r>
       <r>   38.2105    0.0000 </r>
       <r>   38.2105    0.0000 </r>
       <r>   38.5577    0.0000 </r>
       <r>   38.8474    0.0000 </r>
       <r>   38.8474    0.0000 </r>
       <r>   40.8943    0.0000 </r>
       <r>   42.2089    0.0000 </r>
       <r>   42.2089    0.0000 </r>
       <r>   42.3915    0.0000 </r>
       <r>   43.7541    0.0000 </r>
       <r>   43.7541    0.0000 </r>
       <r>   43.9385    0.0000 </r>
       <r>   43.9385    0.0000 </r>
       <r>   44.3103    0.0000 </r>
       <r>   44.3103    0.0000 </r>
       <r>   44.3566    0.0000 </r>
       <r>   44.4926    0.0000 </r>
       <r>   44.4926    0.0000 </r>
       <r>   44.7977    0.0000 </r>
       <r>   45.3264    0.0000 </r>
       <r>   45.3264    0.0000 </r>
       <r>   45.6092    0.0000 </r>
       <r>   45.6092    0.0000 </r>
       <r>   46.0655    0.0000 </r>
       <r>   46.5987    0.0000 </r>
       <r>   46.8263    0.0000 </r>
       <r>   47.8871    0.0000 </r>
       <r>   47.9682    0.0000 </r>
       <r>   48.7262    0.0000 </r>
       <r>   48.7262    0.0000 </r>
       <r>   48.9385    0.0000 </r>
       <r>   49.0206    0.0000 </r>
       <r>   49.0207    0.0000 </r>
       <r>   49.1895    0.0000 </r>
       <r>   49.3789    0.0000 </r>
       <r>   49.5076    0.0000 </r>
       <r>   49.5077    0.0000 </r>
       <r>   49.7124    0.0000 </r>
       <r>   49.7124    0.0000 </r>
       <r>   50.1370    0.0000 </r>
       <r>   50.3457    0.0000 </r>
       <r>   50.3458    0.0000 </r>
       <r>   50.5718    0.0000 </r>
       <r>   50.6150    0.0000 </r>
       <r>   50.6150    0.0000 </r>
       <r>   51.5785    0.0000 </r>
       <r>   51.5785    0.0000 </r>
       <r>   51.7184    0.0000 </r>
       <r>   52.0203    0.0000 </r>
       <r>   52.4951    0.0000 </r>
       <r>   52.4951    0.0000 </r>
       <r>   52.5049    0.0000 </r>
       <r>   52.5049    0.0000 </r>
       <r>   52.8867    0.0000 </r>
       <r>   53.4918    0.0000 </r>
       <r>   53.4918    0.0000 </r>
       <r>   53.4926    0.0000 </r>
       <r>   53.8300    0.0000 </r>
       <r>   53.8300    0.0000 </r>
       <r>   53.9143    0.0000 </r>
       <r>   54.2916    0.0000 </r>
       <r>   54.3186    0.0000 </r>
       <r>   54.3186    0.0000 </r>
       <r>   54.4694    0.0000 </r>
       <r>   54.4695    0.0000 </r>
       <r>   54.6490    0.0000 </r>
       <r>   54.9433    0.0000 </r>
       <r>   54.9433    0.0000 </r>
       <r>   55.2684    0.0000 </r>
       <r>   55.3383    0.0000 </r>
       <r>   55.6000    0.0000 </r>
       <r>   55.7091    0.0000 </r>
       <r>   55.8562    0.0000 </r>
       <r>   55.8562    0.0000 </r>
       <r>   55.9784    0.0000 </r>
       <r>   55.9785    0.0000 </r>
       <r>   56.0273    0.0000 </r>
       <r>   56.4062    0.0000 </r>
       <r>   56.4062    0.0000 </r>
       <r>   57.0541    0.0000 </r>
       <r>   57.0541    0.0000 </r>
       <r>   57.1684    0.0000 </r>
       <r>   57.1813    0.0000 </r>
       <r>   57.1813    0.0000 </r>
       <r>   57.4345    0.0000 </r>
       <r>   57.4759    0.0000 </r>
       <r>   57.4759    0.0000 </r>
       <r>   57.6909    0.0000 </r>
       <r>   57.6909    0.0000 </r>
       <r>   57.8660    0.0000 </r>
       <r>   57.8786    0.0000 </r>
       <r>   57.9830    0.0000 </r>
       <r>   57.9830    0.0000 </r>
       <r>   58.0113    0.0000 </r>
       <r>   58.0225    0.0000 </r>
       <r>   58.1490    0.0000 </r>
       <r>   58.1490    0.0000 </r>
       <r>   58.1727    0.0000 </r>
       <r>   58.3631    0.0000 </r>
       <r>   58.3631    0.0000 </r>
       <r>   58.3839    0.0000 </r>
       <r>   58.3839    0.0000 </r>
       <r>   58.8988    0.0000 </r>
       <r>   58.8988    0.0000 </r>
       <r>   59.0563    0.0000 </r>
       <r>   59.7119    0.0000 </r>
       <r>   59.7119    0.0000 </r>
       <r>   59.9710    0.0000 </r>
       <r>   60.2200    0.0000 </r>
       <r>   60.6108    0.0000 </r>
       <r>   60.6108    0.0000 </r>
       <r>   60.9781    0.0000 </r>
       <r>   61.1585    0.0000 </r>
       <r>   61.1585    0.0000 </r>
       <r>   62.1187    0.0000 </r>
       <r>   62.1187    0.0000 </r>
       <r>   62.7654    0.0000 </r>
       <r>   63.2527    0.0000 </r>
       <r>   63.6720    0.0000 </r>
       <r>   63.6720    0.0000 </r>
       <r>   65.3916    0.0000 </r>
       <r>   65.3916    0.0000 </r>
       <r>   65.7610    0.0000 </r>
       <r>   65.7610    0.0000 </r>
       <r>   65.9659    0.0000 </r>
       <r>   66.0271    0.0000 </r>
       <r>   66.1788    0.0000 </r>
       <r>   66.1788    0.0000 </r>
       <r>   66.2120    0.0000 </r>
       <r>   66.2537    0.0000 </r>
       <r>   66.3494    0.0000 </r>
       <r>   66.3494    0.0000 </r>
       <r>   66.5925    0.0000 </r>
       <r>   66.7507    0.0000 </r>
       <r>   66.7508    0.0000 </r>
       <r>   66.8896    0.0000 </r>
       <r>   67.0713    0.0000 </r>
       <r>   67.0713    0.0000 </r>
       <r>   67.2113    0.0000 </r>
       <r>   67.2989    0.0000 </r>
       <r>   67.2989    0.0000 </r>
       <r>   67.3851    0.0000 </r>
       <r>   67.6908    0.0000 </r>
       <r>   67.6908    0.0000 </r>
       <r>   68.2115    0.0000 </r>
       <r>   68.2115    0.0000 </r>
       <r>   68.5114    0.0000 </r>
       <r>   68.5114    0.0000 </r>
       <r>   68.6015    0.0000 </r>
       <r>   68.6015    0.0000 </r>
       <r>   68.6157    0.0000 </r>
       <r>   68.6247    0.0000 </r>
       <r>   68.6344    0.0000 </r>
       <r>   68.9972    0.0000 </r>
       <r>   69.2825    0.0000 </r>
       <r>   69.3119    0.0000 </r>
       <r>   69.3119    0.0000 </r>
       <r>   69.4176    0.0000 </r>
       <r>   69.4177    0.0000 </r>
       <r>   69.5744    0.0000 </r>
       <r>   69.9786    0.0000 </r>
       <r>   69.9786    0.0000 </r>
       <r>   70.2573    0.0000 </r>
       <r>   70.7134    0.0000 </r>
       <r>   70.7134    0.0000 </r>
       <r>   71.1024    0.0000 </r>
       <r>   71.2748    0.0000 </r>
       <r>   71.7878    0.0000 </r>
       <r>   72.4061    0.0000 </r>
       <r>   72.4061    0.0000 </r>
       <r>   72.4156    0.0000 </r>
       <r>   72.6734    0.0000 </r>
       <r>   72.7043    0.0000 </r>
       <r>   72.7043    0.0000 </r>
       <r>   72.7429    0.0000 </r>
       <r>   72.7472    0.0000 </r>
       <r>   72.7472    0.0000 </r>
       <r>   73.3727    0.0000 </r>
       <r>   73.3727    0.0000 </r>
       <r>   73.3751    0.0000 </r>
       <r>   73.3751    0.0000 </r>
       <r>   73.4653    0.0000 </r>
       <r>   73.4653    0.0000 </r>
       <r>   73.6715    0.0000 </r>
       <r>   73.9920    0.0000 </r>
       <r>   74.0075    0.0000 </r>
       <r>   74.0075    0.0000 </r>
       <r>   74.4828    0.0000 </r>
       <r>   75.0597    0.0000 </r>
       <r>   75.0597    0.0000 </r>
       <r>   75.1478    0.0000 </r>
       <r>   75.8349    0.0000 </r>
       <r>   76.6256    0.0000 </r>
       <r>   76.6256    0.0000 </r>
       <r>   76.8710    0.0000 </r>
       <r>   77.0277    0.0000 </r>
       <r>   77.5077    0.0000 </r>
       <r>   77.7840    0.0000 </r>
       <r>   77.7840    0.0000 </r>
       <r>   77.8734    0.0000 </r>
       <r>   77.8734    0.0000 </r>
       <r>   77.9113    0.0000 </r>
       <r>   77.9113    0.0000 </r>
       <r>   78.0212    0.0000 </r>
       <r>   78.3211    0.0000 </r>
       <r>   78.3211    0.0000 </r>
       <r>   78.6119    0.0000 </r>
       <r>   78.6120    0.0000 </r>
       <r>   78.6572    0.0000 </r>
       <r>   78.9605    0.0000 </r>
       <r>   78.9606    0.0000 </r>
       <r>   79.3666    0.0000 </r>
       <r>   79.4510    0.0000 </r>
       <r>   79.4510    0.0000 </r>
       <r>   79.9352    0.0000 </r>
       <r>   79.9352    0.0000 </r>
       <r>   80.0121    0.0000 </r>
       <r>   80.0897    0.0000 </r>
       <r>   80.7824    0.0000 </r>
       <r>   80.7825    0.0000 </r>
       <r>   81.0321    0.0000 </r>
       <r>   81.0321    0.0000 </r>
       <r>   81.1526    0.0000 </r>
       <r>   81.3520    0.0000 </r>
       <r>   81.3520    0.0000 </r>
       <r>   81.3784    0.0000 </r>
       <r>   81.4070    0.0000 </r>
       <r>   81.5901    0.0000 </r>
       <r>   81.8722    0.0000 </r>
       <r>   81.9254    0.0000 </r>
       <r>   81.9254    0.0000 </r>
       <r>   81.9366    0.0000 </r>
       <r>   81.9366    0.0000 </r>
       <r>   82.3570    0.0000 </r>
       <r>   82.6418    0.0000 </r>
       <r>   82.6418    0.0000 </r>
       <r>   82.6462    0.0000 </r>
       <r>   82.7812    0.0000 </r>
       <r>   82.7880    0.0000 </r>
       <r>   82.9769    0.0000 </r>
       <r>   83.0263    0.0000 </r>
       <r>   83.0263    0.0000 </r>
       <r>   83.0285    0.0000 </r>
       <r>   83.0285    0.0000 </r>
       <r>   84.1896    0.0000 </r>
       <r>   84.1896    0.0000 </r>
       <r>   84.2833    0.0000 </r>
       <r>   84.2833    0.0000 </r>
       <r>   84.9984    0.0000 </r>
       <r>   84.9984    0.0000 </r>
       <r>   85.6300    0.0000 </r>
       <r>   85.6549    0.0000 </r>
       <r>   85.6549    0.0000 </r>
       <r>   86.5747    0.0000 </r>
       <r>   86.8479    0.0000 </r>
       <r>   86.8479    0.0000 </r>
       <r>   87.6634    0.0000 </r>
       <r>   88.4822    0.0000 </r>
       <r>   88.4822    0.0000 </r>
       <r>   89.1168    0.0000 </r>
       <r>   89.7621    0.0000 </r>
       <r>   89.7621    0.0000 </r>
       <r>   90.2041    0.0000 </r>
       <r>   90.2041    0.0000 </r>
       <r>   90.3667    0.0000 </r>
       <r>   91.1495    0.0000 </r>
       <r>   91.7127    0.0000 </r>
       <r>   91.7128    0.0000 </r>
       <r>   91.7477    0.0000 </r>
       <r>   91.7477    0.0000 </r>
       <r>   91.7833    0.0000 </r>
       <r>   92.0133    0.0000 </r>
       <r>   92.0926    0.0000 </r>
       <r>   92.1247    0.0000 </r>
       <r>   92.1961    0.0000 </r>
       <r>   92.1961    0.0000 </r>
       <r>   92.2186    0.0000 </r>
       <r>   92.2186    0.0000 </r>
       <r>   92.2763    0.0000 </r>
       <r>   92.5633    0.0000 </r>
       <r>   93.0951    0.0000 </r>
       <r>   93.2759    0.0000 </r>
       <r>   93.2759    0.0000 </r>
       <r>   93.5665    0.0000 </r>
       <r>   93.5665    0.0000 </r>
       <r>   93.8782    0.0000 </r>
       <r>   94.5586    0.0000 </r>
       <r>   94.5586    0.0000 </r>
       <r>   94.6939    0.0000 </r>
       <r>   94.6939    0.0000 </r>
       <r>   95.2238    0.0000 </r>
       <r>   95.2238    0.0000 </r>
       <r>   95.3031    0.0000 </r>
       <r>   95.4568    0.0000 </r>
       <r>   95.4740    0.0000 </r>
       <r>   95.5496    0.0000 </r>
       <r>   95.5496    0.0000 </r>
       <r>   95.5565    0.0000 </r>
       <r>   95.5565    0.0000 </r>
       <r>   95.5648    0.0000 </r>
       <r>   95.6407    0.0000 </r>
       <r>   95.6407    0.0000 </r>
       <r>   95.6413    0.0000 </r>
       <r>   95.8103    0.0000 </r>
       <r>   95.8103    0.0000 </r>
       <r>   95.8886    0.0000 </r>
       <r>   95.8974    0.0000 </r>
       <r>   95.8974    0.0000 </r>
       <r>   95.9135    0.0000 </r>
       <r>   95.9762    0.0000 </r>
       <r>   96.3296    0.0000 </r>
       <r>   96.3296    0.0000 </r>
       <r>   96.3488    0.0000 </r>
       <r>   96.6568    0.0000 </r>
      </set>
      <set comment="kpoint 2">
       <r>  -18.5132    1.0000 </r>
       <r>  -14.7809    1.0000 </r>
       <r>  -14.6912    1.0000 </r>
       <r>  -12.3384    1.0000 </r>
       <r>  -12.2008    1.0000 </r>
       <r>  -11.0961    1.0000 </r>
       <r>   -9.7531    1.0000 </r>
       <r>   -7.3040    1.0000 </r>
       <r>   -7.1822    1.0000 </r>
       <r>   -5.0944    1.0000 </r>
       <r>   -4.9934    1.0000 </r>
       <r>   -3.2737    1.0000 </r>
       <r>   -3.1697    1.0000 </r>
       <r>   -2.6092    1.0000 </r>
       <r>   -2.5354    1.0000 </r>
       <r>   -0.8361    0.0000 </r>
       <r>    1.1605    0.0000 </r>
       <r>    1.4116    0.0000 </r>
       <r>    1.9153    0.0000 </r>
       <r>    1.9734    0.0000 </r>
       <r>    4.5728    0.0000 </r>
       <r>    5.9692    0.0000 </r>
       <r>    6.3866    0.0000 </r>
       <r>    6.4781    0.0000 </r>
       <r>    7.6627    0.0000 </r>
       <r>    8.0377    0.0000 </r>
       <r>    8.2336    0.0000 </r>
       <r>    8.2352    0.0000 </r>
       <r>    8.6808    0.0000 </r>
       <r>    8.7555    0.0000 </r>
       <r>    9.8480    0.0000 </r>
       <r>    9.8619    0.0000 </r>
       <r>    9.9124    0.0000 </r>
       <r>   10.3759    0.0000 </r>
       <r>   10.3995    0.0000 </r>
       <r>   10.4193    0.0000 </r>
       <r>   10.9077    0.0000 </r>
       <r>   11.4137    0.0000 </r>
       <r>   11.6687    0.0000 </r>
       <r>   12.0448    0.0000 </r>
       <r>   12.1516    0.0000 </r>
       <r>   12.3345    0.0000 </r>
       <r>   12.5608    0.0000 </r>
       <r>   12.8381    0.0000 </r>
       <r>   13.0972    0.0000 </r>
       <r>   13.6279    0.0000 </r>
       <r>   13.8001    0.0000 </r>
       <r>   14.2603    0.0000 </r>
       <r>   15.5623    0.0000 </r>
       <r>   15.6614    0.0000 </r>
       <r>   15.7181    0.0000 </r>
       <r>   16.2792    0.0000 </r>
       <r>   18.0211    0.0000 </r>
       <r>   18.0716    0.0000 </r>
       <r>   18.6452    0.0000 </r>
       <r>   18.9834    0.0000 </r>
       <r>   18.9928    0.0000 </r>
       <r>   19.3961    0.0000 </r>
       <r>   19.4430    0.0000 </r>
       <r>   19.8594    0.0000 </r>
       <r>   19.9227    0.0000 </r>
       <r>   19.9355    0.0000 </r>
       <r>   20.0222    0.0000 </r>
       <r>   20.0695    0.0000 </r>
       <r>   20.4469    0.0000 </r>
       <r>   20.9480    0.0000 </r>
       <r>   21.1306    0.0000 </r>
       <r>   21.1701    0.0000 </r>
       <r>   22.3006    0.0000 </r>
       <r>   22.5129    0.0000 </r>
       <r>   23.0923    0.0000 </r>
       <r>   23.5592    0.0000 </r>
       <r>   23.5744    0.0000 </r>
       <r>   23.6015    0.0000 </r>
       <r>   23.8165    0.0000 </r>
       <r>   24.0248    0.0000 </r>
       <r>   24.2674    0.0000 </r>
       <r>   24.5217    0.0000 </r>
       <r>   24.8306    0.0000 </r>
       <r>   24.9676    0.0000 </r>
       <r>   25.0475    0.0000 </r>
       <r>   25.5521    0.0000 </r>
       <r>   25.6964    0.0000 </r>
       <r>   25.7980    0.0000 </r>
       <r>   25.9189    0.0000 </r>
       <r>   26.1275    0.0000 </r>
       <r>   26.3973    0.0000 </r>
       <r>   26.9094    0.0000 </r>
       <r>   26.9234    0.0000 </r>
       <r>   27.0815    0.0000 </r>
       <r>   27.0849    0.0000 </r>
       <r>   27.5813    0.0000 </r>
       <r>   27.8918    0.0000 </r>
       <r>   28.1065    0.0000 </r>
       <r>   28.6632    0.0000 </r>
       <r>   28.9184    0.0000 </r>
       <r>   29.0466    0.0000 </r>
       <r>   29.1763    0.0000 </r>
       <r>   29.2646    0.0000 </r>
       <r>   29.6366    0.0000 </r>
       <r>   29.6478    0.0000 </r>
       <r>   30.1213    0.0000 </r>
       <r>   30.1818    0.0000 </r>
       <r>   30.7678    0.0000 </r>
       <r>   31.1259    0.0000 </r>
       <r>   31.8749    0.0000 </r>
       <r>   31.9108    0.0000 </r>
       <r>   32.0148    0.0000 </r>
       <r>   32.0886    0.0000 </r>
       <r>   32.5461    0.0000 </r>
       <r>   32.6542    0.0000 </r>
       <r>   32.9444    0.0000 </r>
       <r>   33.0816    0.0000 </r>
       <r>   33.3384    0.0000 </r>
       <r>   33.4640    0.0000 </r>
       <r>   33.5848    0.0000 </r>
       <r>   33.6087    0.0000 </r>
       <r>   33.8445    0.0000 </r>
       <r>   34.0075    0.0000 </r>
       <r>   34.0686    0.0000 </r>
       <r>   34.1281    0.0000 </r>
       <r>   34.2291    0.0000 </r>
       <r>   35.1281    0.0000 </r>
       <r>   35.9146    0.0000 </r>
       <r>   35.9610    0.0000 </r>
       <r>   35.9882    0.0000 </r>
       <r>   36.2332    0.0000 </r>
       <r>   36.3840    0.0000 </r>
       <r>   36.5942    0.0000 </r>
       <r>   36.7596    0.0000 </r>
       <r>   36.8647    0.0000 </r>
       <r>   37.0219    0.0000 </r>
       <r>   37.1188    0.0000 </r>
       <r>   37.2090    0.0000 </r>
       <r>   37.4568    0.0000 </r>
       <r>   37.5348    0.0000 </r>
       <r>   37.8830    0.0000 </r>
       <r>   37.9740    0.0000 </r>
       <r>   38.0606    0.0000 </r>
       <r>   38.1707    0.0000 </r>
       <r>   38.3342    0.0000 </r>
       <r>   38.4488    0.0000 </r>
       <r>   38.9582    0.0000 </r>
       <r>   39.0151    0.0000 </r>
       <r>   39.1512    0.0000 </r>
       <r>   39.7411    0.0000 </r>
       <r>   39.8913    0.0000 </r>
       <r>   40.4036    0.0000 </r>
       <r>   41.6591    0.0000 </r>
       <r>   41.7874    0.0000 </r>
       <r>   42.0183    0.0000 </r>
       <r>   43.0529    0.0000 </r>
       <r>   43.1371    0.0000 </r>
       <r>   43.1853    0.0000 </r>
       <r>   43.3711    0.0000 </r>
       <r>   43.6680    0.0000 </r>
       <r>   43.9100    0.0000 </r>
       <r>   44.3356    0.0000 </r>
       <r>   44.4581    0.0000 </r>
       <r>   44.7940    0.0000 </r>
       <r>   44.8728    0.0000 </r>
       <r>   45.0487    0.0000 </r>
       <r>   45.2335    0.0000 </r>
       <r>   46.1032    0.0000 </r>
       <r>   46.2269    0.0000 </r>
       <r>   46.3651    0.0000 </r>
       <r>   46.4216    0.0000 </r>
       <r>   46.8963    0.0000 </r>
       <r>   47.1013    0.0000 </r>
       <r>   48.0085    0.0000 </r>
       <r>   48.2044    0.0000 </r>
       <r>   48.2685    0.0000 </r>
       <r>   48.4867    0.0000 </r>
       <r>   48.4867    0.0000 </r>
       <r>   48.6077    0.0000 </r>
       <r>   49.4193    0.0000 </r>
       <r>   49.4674    0.0000 </r>
       <r>   49.4813    0.0000 </r>
       <r>   49.4971    0.0000 </r>
       <r>   50.1891    0.0000 </r>
       <r>   50.2489    0.0000 </r>
       <r>   50.3481    0.0000 </r>
       <r>   50.4411    0.0000 </r>
       <r>   50.7495    0.0000 </r>
       <r>   50.7703    0.0000 </r>
       <r>   51.0252    0.0000 </r>
       <r>   51.0836    0.0000 </r>
       <r>   51.2201    0.0000 </r>
       <r>   51.2372    0.0000 </r>
       <r>   51.3233    0.0000 </r>
       <r>   52.0790    0.0000 </r>
       <r>   52.1310    0.0000 </r>
       <r>   52.3383    0.0000 </r>
       <r>   52.5341    0.0000 </r>
       <r>   52.6621    0.0000 </r>
       <r>   52.7051    0.0000 </r>
       <r>   52.7968    0.0000 </r>
       <r>   52.9839    0.0000 </r>
       <r>   53.1591    0.0000 </r>
       <r>   53.4564    0.0000 </r>
       <r>   53.6301    0.0000 </r>
       <r>   53.6776    0.0000 </r>
       <r>   53.8575    0.0000 </r>
       <r>   54.1638    0.0000 </r>
       <r>   54.4158    0.0000 </r>
       <r>   54.5037    0.0000 </r>
       <r>   54.6902    0.0000 </r>
       <r>   54.7543    0.0000 </r>
       <r>   54.8263    0.0000 </r>
       <r>   54.8421    0.0000 </r>
       <r>   54.8679    0.0000 </r>
       <r>   55.0431    0.0000 </r>
       <r>   55.0736    0.0000 </r>
       <r>   55.3025    0.0000 </r>
       <r>   55.4662    0.0000 </r>
       <r>   55.5311    0.0000 </r>
       <r>   55.6692    0.0000 </r>
       <r>   56.1756    0.0000 </r>
       <r>   56.1912    0.0000 </r>
       <r>   56.2449    0.0000 </r>
       <r>   56.3750    0.0000 </r>
       <r>   56.4639    0.0000 </r>
       <r>   56.5464    0.0000 </r>
       <r>   56.5747    0.0000 </r>
       <r>   56.8251    0.0000 </r>
       <r>   56.8859    0.0000 </r>
       <r>   57.0189    0.0000 </r>
       <r>   57.0577    0.0000 </r>
       <r>   57.1652    0.0000 </r>
       <r>   57.2095    0.0000 </r>
       <r>   57.4579    0.0000 </r>
       <r>   57.6391    0.0000 </r>
       <r>   57.6791    0.0000 </r>
       <r>   57.7261    0.0000 </r>
       <r>   58.0939    0.0000 </r>
       <r>   58.1463    0.0000 </r>
       <r>   58.2340    0.0000 </r>
       <r>   58.6067    0.0000 </r>
       <r>   58.7254    0.0000 </r>
       <r>   58.7317    0.0000 </r>
       <r>   59.1755    0.0000 </r>
       <r>   59.4085    0.0000 </r>
       <r>   59.5037    0.0000 </r>
       <r>   60.0199    0.0000 </r>
       <r>   60.0306    0.0000 </r>
       <r>   60.2943    0.0000 </r>
       <r>   60.3322    0.0000 </r>
       <r>   60.4211    0.0000 </r>
       <r>   60.5725    0.0000 </r>
       <r>   60.5849    0.0000 </r>
       <r>   60.7327    0.0000 </r>
       <r>   61.0217    0.0000 </r>
       <r>   61.0341    0.0000 </r>
       <r>   61.3763    0.0000 </r>
       <r>   61.5507    0.0000 </r>
       <r>   61.6702    0.0000 </r>
       <r>   62.1374    0.0000 </r>
       <r>   62.2604    0.0000 </r>
       <r>   62.7760    0.0000 </r>
       <r>   63.5386    0.0000 </r>
       <r>   63.8106    0.0000 </r>
       <r>   64.0655    0.0000 </r>
       <r>   64.1332    0.0000 </r>
       <r>   64.1393    0.0000 </r>
       <r>   64.1615    0.0000 </r>
       <r>   64.2112    0.0000 </r>
       <r>   64.4574    0.0000 </r>
       <r>   65.0710    0.0000 </r>
       <r>   65.2099    0.0000 </r>
       <r>   65.3051    0.0000 </r>
       <r>   65.6032    0.0000 </r>
       <r>   65.6439    0.0000 </r>
       <r>   65.8292    0.0000 </r>
       <r>   66.3752    0.0000 </r>
       <r>   66.4268    0.0000 </r>
       <r>   66.4561    0.0000 </r>
       <r>   66.6966    0.0000 </r>
       <r>   66.7485    0.0000 </r>
       <r>   66.8655    0.0000 </r>
       <r>   66.8769    0.0000 </r>
       <r>   67.1461    0.0000 </r>
       <r>   67.1550    0.0000 </r>
       <r>   67.4064    0.0000 </r>
       <r>   67.5691    0.0000 </r>
       <r>   67.6359    0.0000 </r>
       <r>   67.8043    0.0000 </r>
       <r>   67.8925    0.0000 </r>
       <r>   68.2152    0.0000 </r>
       <r>   68.3085    0.0000 </r>
       <r>   68.5106    0.0000 </r>
       <r>   68.5845    0.0000 </r>
       <r>   69.0390    0.0000 </r>
       <r>   69.1340    0.0000 </r>
       <r>   69.1491    0.0000 </r>
       <r>   69.3886    0.0000 </r>
       <r>   69.7238    0.0000 </r>
       <r>   69.7471    0.0000 </r>
       <r>   69.8479    0.0000 </r>
       <r>   69.8762    0.0000 </r>
       <r>   70.1228    0.0000 </r>
       <r>   70.3301    0.0000 </r>
       <r>   70.4921    0.0000 </r>
       <r>   70.4967    0.0000 </r>
       <r>   70.6342    0.0000 </r>
       <r>   70.6996    0.0000 </r>
       <r>   70.9202    0.0000 </r>
       <r>   70.9263    0.0000 </r>
       <r>   71.0767    0.0000 </r>
       <r>   71.3548    0.0000 </r>
       <r>   71.4285    0.0000 </r>
       <r>   71.4422    0.0000 </r>
       <r>   71.4481    0.0000 </r>
       <r>   71.5697    0.0000 </r>
       <r>   71.6282    0.0000 </r>
       <r>   72.8180    0.0000 </r>
       <r>   72.9641    0.0000 </r>
       <r>   72.9941    0.0000 </r>
       <r>   73.0840    0.0000 </r>
       <r>   73.5707    0.0000 </r>
       <r>   73.6158    0.0000 </r>
       <r>   73.7438    0.0000 </r>
       <r>   73.7774    0.0000 </r>
       <r>   74.0381    0.0000 </r>
       <r>   74.0873    0.0000 </r>
       <r>   74.2790    0.0000 </r>
       <r>   74.5998    0.0000 </r>
       <r>   74.6212    0.0000 </r>
       <r>   74.6645    0.0000 </r>
       <r>   74.8909    0.0000 </r>
       <r>   74.9799    0.0000 </r>
       <r>   75.3516    0.0000 </r>
       <r>   75.5207    0.0000 </r>
       <r>   75.9478    0.0000 </r>
       <r>   76.2251    0.0000 </r>
       <r>   76.3269    0.0000 </r>
       <r>   76.4378    0.0000 </r>
       <r>   76.6432    0.0000 </r>
       <r>   77.0400    0.0000 </r>
       <r>   77.0610    0.0000 </r>
       <r>   77.2144    0.0000 </r>
       <r>   77.3628    0.0000 </r>
       <r>   77.4198    0.0000 </r>
       <r>   77.5806    0.0000 </r>
       <r>   77.7200    0.0000 </r>
       <r>   77.9108    0.0000 </r>
       <r>   78.2082    0.0000 </r>
       <r>   78.2427    0.0000 </r>
       <r>   78.2612    0.0000 </r>
       <r>   78.2907    0.0000 </r>
       <r>   78.6760    0.0000 </r>
       <r>   78.7094    0.0000 </r>
       <r>   78.7275    0.0000 </r>
       <r>   79.0150    0.0000 </r>
       <r>   79.1421    0.0000 </r>
       <r>   79.1515    0.0000 </r>
       <r>   79.2345    0.0000 </r>
       <r>   79.2612    0.0000 </r>
       <r>   79.3174    0.0000 </r>
       <r>   79.5721    0.0000 </r>
       <r>   79.6689    0.0000 </r>
       <r>   79.8982    0.0000 </r>
       <r>   79.9118    0.0000 </r>
       <r>   80.1923    0.0000 </r>
       <r>   80.2444    0.0000 </r>
       <r>   80.4263    0.0000 </r>
       <r>   80.4901    0.0000 </r>
       <r>   80.5611    0.0000 </r>
       <r>   80.9882    0.0000 </r>
       <r>   81.2651    0.0000 </r>
       <r>   81.3481    0.0000 </r>
       <r>   81.8540    0.0000 </r>
       <r>   81.8852    0.0000 </r>
       <r>   82.0023    0.0000 </r>
       <r>   82.2395    0.0000 </r>
       <r>   82.6005    0.0000 </r>
       <r>   82.7009    0.0000 </r>
       <r>   82.9487    0.0000 </r>
       <r>   83.1451    0.0000 </r>
       <r>   83.1783    0.0000 </r>
       <r>   83.4019    0.0000 </r>
       <r>   83.4858    0.0000 </r>
       <r>   83.9376    0.0000 </r>
       <r>   84.0937    0.0000 </r>
       <r>   84.1838    0.0000 </r>
       <r>   84.3310    0.0000 </r>
       <r>   84.6606    0.0000 </r>
       <r>   84.8569    0.0000 </r>
       <r>   84.8822    0.0000 </r>
       <r>   85.1654    0.0000 </r>
       <r>   85.4277    0.0000 </r>
       <r>   85.4483    0.0000 </r>
       <r>   85.6360    0.0000 </r>
       <r>   85.9702    0.0000 </r>
       <r>   85.9975    0.0000 </r>
       <r>   86.1189    0.0000 </r>
       <r>   86.2743    0.0000 </r>
       <r>   86.7391    0.0000 </r>
       <r>   87.2595    0.0000 </r>
       <r>   87.3630    0.0000 </r>
       <r>   87.9322    0.0000 </r>
       <r>   87.9946    0.0000 </r>
       <r>   88.1374    0.0000 </r>
       <r>   88.2755    0.0000 </r>
       <r>   88.4795    0.0000 </r>
       <r>   88.7955    0.0000 </r>
       <r>   89.8355    0.0000 </r>
       <r>   90.5749    0.0000 </r>
       <r>   90.6763    0.0000 </r>
       <r>   90.7112    0.0000 </r>
       <r>   91.1599    0.0000 </r>
       <r>   91.1680    0.0000 </r>
       <r>   91.2909    0.0000 </r>
       <r>   91.3412    0.0000 </r>
       <r>   91.6520    0.0000 </r>
       <r>   91.9248    0.0000 </r>
       <r>   91.9549    0.0000 </r>
       <r>   92.0274    0.0000 </r>
       <r>   92.0603    0.0000 </r>
       <r>   92.1269    0.0000 </r>
       <r>   92.1423    0.0000 </r>
       <r>   92.2067    0.0000 </r>
       <r>   92.2102    0.0000 </r>
       <r>   92.7072    0.0000 </r>
       <r>   92.7229    0.0000 </r>
       <r>   92.9206    0.0000 </r>
       <r>   93.2587    0.0000 </r>
       <r>   93.3464    0.0000 </r>
       <r>   93.3774    0.0000 </r>
       <r>   93.4009    0.0000 </r>
       <r>   93.6882    0.0000 </r>
       <r>   93.7349    0.0000 </r>
       <r>   94.0006    0.0000 </r>
       <r>   94.0550    0.0000 </r>
       <r>   94.3248    0.0000 </r>
       <r>   94.4155    0.0000 </r>
       <r>   94.4392    0.0000 </r>
       <r>   94.6421    0.0000 </r>
       <r>   94.7394    0.0000 </r>
       <r>   94.7541    0.0000 </r>
       <r>   95.1124    0.0000 </r>
       <r>   95.3504    0.0000 </r>
       <r>   95.5217    0.0000 </r>
       <r>   95.5490    0.0000 </r>
       <r>   95.5971    0.0000 </r>
       <r>   95.6215    0.0000 </r>
       <r>   95.8077    0.0000 </r>
       <r>   95.9462    0.0000 </r>
       <r>   95.9517    0.0000 </r>
       <r>   95.9920    0.0000 </r>
       <r>   96.0128    0.0000 </r>
       <r>   96.1187    0.0000 </r>
       <r>   96.1294    0.0000 </r>
       <r>   96.2115    0.0000 </r>
       <r>   96.4844    0.0000 </r>
       <r>   96.5926    0.0000 </r>
       <r>   96.6526    0.0000 </r>
      </set>
      <set comment="kpoint 3">
       <r>  -18.4341    1.0000 </r>
       <r>  -15.1059    1.0000 </r>
       <r>  -14.7954    1.0000 </r>
       <r>  -12.4549    1.0000 </r>
       <r>  -11.9317    1.0000 </r>
       <r>  -10.7149    1.0000 </r>
       <r>   -9.3237    1.0000 </r>
       <r>   -7.3645    1.0000 </r>
       <r>   -7.1816    1.0000 </r>
       <r>   -5.4404    1.0000 </r>
       <r>   -5.0296    1.0000 </r>
       <r>   -3.6157    1.0000 </r>
       <r>   -3.2240    1.0000 </r>
       <r>   -3.0165    1.0000 </r>
       <r>   -2.7272    1.0000 </r>
       <r>   -1.1839    0.0000 </r>
       <r>    1.3238    0.0000 </r>
       <r>    1.8881    0.0000 </r>
       <r>    2.1281    0.0000 </r>
       <r>    2.4358    0.0000 </r>
       <r>    4.7294    0.0000 </r>
       <r>    6.1240    0.0000 </r>
       <r>    6.5551    0.0000 </r>
       <r>    6.9440    0.0000 </r>
       <r>    6.9598    0.0000 </r>
       <r>    7.9146    0.0000 </r>
       <r>    8.1729    0.0000 </r>
       <r>    8.2020    0.0000 </r>
       <r>    8.5790    0.0000 </r>
       <r>    8.7436    0.0000 </r>
       <r>    9.0740    0.0000 </r>
       <r>    9.9077    0.0000 </r>
       <r>    9.9160    0.0000 </r>
       <r>   10.4672    0.0000 </r>
       <r>   10.5716    0.0000 </r>
       <r>   10.5788    0.0000 </r>
       <r>   10.9114    0.0000 </r>
       <r>   11.5894    0.0000 </r>
       <r>   11.8802    0.0000 </r>
       <r>   12.1077    0.0000 </r>
       <r>   12.1424    0.0000 </r>
       <r>   12.3419    0.0000 </r>
       <r>   12.6423    0.0000 </r>
       <r>   13.0075    0.0000 </r>
       <r>   13.4775    0.0000 </r>
       <r>   14.1695    0.0000 </r>
       <r>   14.3858    0.0000 </r>
       <r>   15.1545    0.0000 </r>
       <r>   15.2765    0.0000 </r>
       <r>   15.3889    0.0000 </r>
       <r>   15.7997    0.0000 </r>
       <r>   16.1743    0.0000 </r>
       <r>   17.3574    0.0000 </r>
       <r>   17.5941    0.0000 </r>
       <r>   17.8616    0.0000 </r>
       <r>   19.0273    0.0000 </r>
       <r>   19.0831    0.0000 </r>
       <r>   19.1612    0.0000 </r>
       <r>   19.5522    0.0000 </r>
       <r>   19.8344    0.0000 </r>
       <r>   19.9231    0.0000 </r>
       <r>   20.1859    0.0000 </r>
       <r>   20.2006    0.0000 </r>
       <r>   20.2953    0.0000 </r>
       <r>   20.4610    0.0000 </r>
       <r>   20.6854    0.0000 </r>
       <r>   20.9076    0.0000 </r>
       <r>   20.9177    0.0000 </r>
       <r>   20.9658    0.0000 </r>
       <r>   21.2974    0.0000 </r>
       <r>   23.1084    0.0000 </r>
       <r>   23.7417    0.0000 </r>
       <r>   23.7808    0.0000 </r>
       <r>   23.9368    0.0000 </r>
       <r>   24.0480    0.0000 </r>
       <r>   24.1155    0.0000 </r>
       <r>   24.2288    0.0000 </r>
       <r>   24.2478    0.0000 </r>
       <r>   24.4571    0.0000 </r>
       <r>   24.5114    0.0000 </r>
       <r>   24.6934    0.0000 </r>
       <r>   24.7126    0.0000 </r>
       <r>   25.1039    0.0000 </r>
       <r>   25.1717    0.0000 </r>
       <r>   25.2293    0.0000 </r>
       <r>   26.4776    0.0000 </r>
       <r>   26.6052    0.0000 </r>
       <r>   26.9337    0.0000 </r>
       <r>   27.0663    0.0000 </r>
       <r>   27.5561    0.0000 </r>
       <r>   27.7010    0.0000 </r>
       <r>   28.0595    0.0000 </r>
       <r>   28.1032    0.0000 </r>
       <r>   28.1118    0.0000 </r>
       <r>   28.1885    0.0000 </r>
       <r>   29.1207    0.0000 </r>
       <r>   29.1320    0.0000 </r>
       <r>   29.6998    0.0000 </r>
       <r>   29.7331    0.0000 </r>
       <r>   29.7997    0.0000 </r>
       <r>   30.2525    0.0000 </r>
       <r>   30.3510    0.0000 </r>
       <r>   30.5885    0.0000 </r>
       <r>   30.9582    0.0000 </r>
       <r>   30.9705    0.0000 </r>
       <r>   31.5020    0.0000 </r>
       <r>   31.7567    0.0000 </r>
       <r>   31.9397    0.0000 </r>
       <r>   32.6385    0.0000 </r>
       <r>   32.7569    0.0000 </r>
       <r>   32.8169    0.0000 </r>
       <r>   32.8397    0.0000 </r>
       <r>   32.9283    0.0000 </r>
       <r>   33.0869    0.0000 </r>
       <r>   33.1632    0.0000 </r>
       <r>   33.2361    0.0000 </r>
       <r>   33.7486    0.0000 </r>
       <r>   33.7648    0.0000 </r>
       <r>   33.9660    0.0000 </r>
       <r>   34.0186    0.0000 </r>
       <r>   34.2044    0.0000 </r>
       <r>   34.6047    0.0000 </r>
       <r>   34.9498    0.0000 </r>
       <r>   35.2437    0.0000 </r>
       <r>   35.4874    0.0000 </r>
       <r>   36.2302    0.0000 </r>
       <r>   36.5183    0.0000 </r>
       <r>   36.7573    0.0000 </r>
       <r>   36.8777    0.0000 </r>
       <r>   37.0315    0.0000 </r>
       <r>   37.0646    0.0000 </r>
       <r>   37.4346    0.0000 </r>
       <r>   37.5842    0.0000 </r>
       <r>   37.9624    0.0000 </r>
       <r>   38.0094    0.0000 </r>
       <r>   38.1555    0.0000 </r>
       <r>   38.4170    0.0000 </r>
       <r>   38.8542    0.0000 </r>
       <r>   38.8811    0.0000 </r>
       <r>   39.1132    0.0000 </r>
       <r>   39.2447    0.0000 </r>
       <r>   39.8819    0.0000 </r>
       <r>   39.9875    0.0000 </r>
       <r>   40.0175    0.0000 </r>
       <r>   40.2079    0.0000 </r>
       <r>   40.3686    0.0000 </r>
       <r>   40.5672    0.0000 </r>
       <r>   40.9918    0.0000 </r>
       <r>   41.4309    0.0000 </r>
       <r>   41.5055    0.0000 </r>
       <r>   41.6760    0.0000 </r>
       <r>   41.6996    0.0000 </r>
       <r>   41.7220    0.0000 </r>
       <r>   41.9303    0.0000 </r>
       <r>   42.6752    0.0000 </r>
       <r>   42.7148    0.0000 </r>
       <r>   43.5865    0.0000 </r>
       <r>   43.8867    0.0000 </r>
       <r>   44.2380    0.0000 </r>
       <r>   44.5378    0.0000 </r>
       <r>   44.5403    0.0000 </r>
       <r>   44.7224    0.0000 </r>
       <r>   44.7919    0.0000 </r>
       <r>   45.3049    0.0000 </r>
       <r>   45.7839    0.0000 </r>
       <r>   46.2576    0.0000 </r>
       <r>   46.9417    0.0000 </r>
       <r>   47.1444    0.0000 </r>
       <r>   47.2395    0.0000 </r>
       <r>   47.3560    0.0000 </r>
       <r>   47.5831    0.0000 </r>
       <r>   47.7528    0.0000 </r>
       <r>   48.0740    0.0000 </r>
       <r>   48.1983    0.0000 </r>
       <r>   48.7077    0.0000 </r>
       <r>   48.8128    0.0000 </r>
       <r>   48.9407    0.0000 </r>
       <r>   49.0230    0.0000 </r>
       <r>   49.0710    0.0000 </r>
       <r>   49.1833    0.0000 </r>
       <r>   49.6233    0.0000 </r>
       <r>   50.0096    0.0000 </r>
       <r>   50.4447    0.0000 </r>
       <r>   50.7960    0.0000 </r>
       <r>   50.8175    0.0000 </r>
       <r>   51.0702    0.0000 </r>
       <r>   51.0973    0.0000 </r>
       <r>   51.2646    0.0000 </r>
       <r>   51.6052    0.0000 </r>
       <r>   51.7024    0.0000 </r>
       <r>   51.7616    0.0000 </r>
       <r>   51.7799    0.0000 </r>
       <r>   51.8773    0.0000 </r>
       <r>   52.1730    0.0000 </r>
       <r>   52.2752    0.0000 </r>
       <r>   52.3139    0.0000 </r>
       <r>   52.4321    0.0000 </r>
       <r>   52.4735    0.0000 </r>
       <r>   52.9221    0.0000 </r>
       <r>   52.9401    0.0000 </r>
       <r>   53.1255    0.0000 </r>
       <r>   53.2064    0.0000 </r>
       <r>   53.2902    0.0000 </r>
       <r>   53.3798    0.0000 </r>
       <r>   53.6811    0.0000 </r>
       <r>   53.9041    0.0000 </r>
       <r>   53.9563    0.0000 </r>
       <r>   54.2682    0.0000 </r>
       <r>   54.5095    0.0000 </r>
       <r>   54.6353    0.0000 </r>
       <r>   54.6388    0.0000 </r>
       <r>   54.6881    0.0000 </r>
       <r>   54.9549    0.0000 </r>
       <r>   55.2356    0.0000 </r>
       <r>   55.5023    0.0000 </r>
       <r>   55.5858    0.0000 </r>
       <r>   55.6711    0.0000 </r>
       <r>   56.0427    0.0000 </r>
       <r>   56.1326    0.0000 </r>
       <r>   56.4570    0.0000 </r>
       <r>   56.4874    0.0000 </r>
       <r>   56.6230    0.0000 </r>
       <r>   56.7015    0.0000 </r>
       <r>   56.7793    0.0000 </r>
       <r>   56.7801    0.0000 </r>
       <r>   56.8025    0.0000 </r>
       <r>   57.0056    0.0000 </r>
       <r>   57.0066    0.0000 </r>
       <r>   57.2368    0.0000 </r>
       <r>   57.3407    0.0000 </r>
       <r>   57.4834    0.0000 </r>
       <r>   57.8336    0.0000 </r>
       <r>   57.9182    0.0000 </r>
       <r>   58.1056    0.0000 </r>
       <r>   58.2455    0.0000 </r>
       <r>   58.4224    0.0000 </r>
       <r>   58.4813    0.0000 </r>
       <r>   59.4516    0.0000 </r>
       <r>   59.4563    0.0000 </r>
       <r>   59.8112    0.0000 </r>
       <r>   59.9746    0.0000 </r>
       <r>   60.0811    0.0000 </r>
       <r>   60.0917    0.0000 </r>
       <r>   60.2638    0.0000 </r>
       <r>   61.1602    0.0000 </r>
       <r>   61.3572    0.0000 </r>
       <r>   61.3716    0.0000 </r>
       <r>   61.5326    0.0000 </r>
       <r>   61.5417    0.0000 </r>
       <r>   61.6584    0.0000 </r>
       <r>   61.7090    0.0000 </r>
       <r>   61.7498    0.0000 </r>
       <r>   61.8022    0.0000 </r>
       <r>   61.9057    0.0000 </r>
       <r>   62.0189    0.0000 </r>
       <r>   62.0238    0.0000 </r>
       <r>   62.3300    0.0000 </r>
       <r>   62.5653    0.0000 </r>
       <r>   62.9404    0.0000 </r>
       <r>   63.0027    0.0000 </r>
       <r>   63.0147    0.0000 </r>
       <r>   63.1569    0.0000 </r>
       <r>   63.1792    0.0000 </r>
       <r>   63.6481    0.0000 </r>
       <r>   63.8384    0.0000 </r>
       <r>   64.5425    0.0000 </r>
       <r>   64.5654    0.0000 </r>
       <r>   64.5866    0.0000 </r>
       <r>   64.6965    0.0000 </r>
       <r>   64.7318    0.0000 </r>
       <r>   64.9493    0.0000 </r>
       <r>   65.1634    0.0000 </r>
       <r>   65.2316    0.0000 </r>
       <r>   65.2661    0.0000 </r>
       <r>   65.9334    0.0000 </r>
       <r>   65.9874    0.0000 </r>
       <r>   66.1768    0.0000 </r>
       <r>   66.2473    0.0000 </r>
       <r>   66.2570    0.0000 </r>
       <r>   66.3764    0.0000 </r>
       <r>   66.4075    0.0000 </r>
       <r>   66.7719    0.0000 </r>
       <r>   67.2470    0.0000 </r>
       <r>   67.4248    0.0000 </r>
       <r>   67.5070    0.0000 </r>
       <r>   67.6463    0.0000 </r>
       <r>   67.9536    0.0000 </r>
       <r>   68.1121    0.0000 </r>
       <r>   68.1307    0.0000 </r>
       <r>   68.4140    0.0000 </r>
       <r>   68.4233    0.0000 </r>
       <r>   68.9782    0.0000 </r>
       <r>   69.2038    0.0000 </r>
       <r>   69.2284    0.0000 </r>
       <r>   69.4678    0.0000 </r>
       <r>   69.5242    0.0000 </r>
       <r>   69.9148    0.0000 </r>
       <r>   69.9249    0.0000 </r>
       <r>   70.1112    0.0000 </r>
       <r>   70.1375    0.0000 </r>
       <r>   70.2368    0.0000 </r>
       <r>   70.2394    0.0000 </r>
       <r>   71.1069    0.0000 </r>
       <r>   71.3740    0.0000 </r>
       <r>   71.8423    0.0000 </r>
       <r>   71.8744    0.0000 </r>
       <r>   72.1543    0.0000 </r>
       <r>   72.4509    0.0000 </r>
       <r>   72.5701    0.0000 </r>
       <r>   72.6800    0.0000 </r>
       <r>   72.8245    0.0000 </r>
       <r>   72.8464    0.0000 </r>
       <r>   72.8694    0.0000 </r>
       <r>   72.9487    0.0000 </r>
       <r>   73.2455    0.0000 </r>
       <r>   73.2690    0.0000 </r>
       <r>   73.4245    0.0000 </r>
       <r>   73.5394    0.0000 </r>
       <r>   73.7491    0.0000 </r>
       <r>   74.0139    0.0000 </r>
       <r>   74.1464    0.0000 </r>
       <r>   74.1779    0.0000 </r>
       <r>   74.2703    0.0000 </r>
       <r>   74.2903    0.0000 </r>
       <r>   74.4060    0.0000 </r>
       <r>   74.4292    0.0000 </r>
       <r>   74.9345    0.0000 </r>
       <r>   75.1801    0.0000 </r>
       <r>   75.2354    0.0000 </r>
       <r>   75.5101    0.0000 </r>
       <r>   75.6743    0.0000 </r>
       <r>   75.8107    0.0000 </r>
       <r>   76.0990    0.0000 </r>
       <r>   76.3046    0.0000 </r>
       <r>   76.3550    0.0000 </r>
       <r>   76.4491    0.0000 </r>
       <r>   76.5580    0.0000 </r>
       <r>   76.7580    0.0000 </r>
       <r>   76.7796    0.0000 </r>
       <r>   76.8412    0.0000 </r>
       <r>   76.8907    0.0000 </r>
       <r>   77.0644    0.0000 </r>
       <r>   77.2053    0.0000 </r>
       <r>   77.2098    0.0000 </r>
       <r>   77.2651    0.0000 </r>
       <r>   77.5168    0.0000 </r>
       <r>   77.9975    0.0000 </r>
       <r>   78.0429    0.0000 </r>
       <r>   78.1376    0.0000 </r>
       <r>   78.3209    0.0000 </r>
       <r>   78.4194    0.0000 </r>
       <r>   78.8013    0.0000 </r>
       <r>   78.8751    0.0000 </r>
       <r>   78.8780    0.0000 </r>
       <r>   78.9060    0.0000 </r>
       <r>   79.1304    0.0000 </r>
       <r>   79.2140    0.0000 </r>
       <r>   79.2184    0.0000 </r>
       <r>   79.6083    0.0000 </r>
       <r>   79.6841    0.0000 </r>
       <r>   79.9031    0.0000 </r>
       <r>   79.9117    0.0000 </r>
       <r>   80.0249    0.0000 </r>
       <r>   80.2832    0.0000 </r>
       <r>   80.3424    0.0000 </r>
       <r>   80.3745    0.0000 </r>
       <r>   80.4647    0.0000 </r>
       <r>   80.9587    0.0000 </r>
       <r>   81.3427    0.0000 </r>
       <r>   81.3717    0.0000 </r>
       <r>   81.9811    0.0000 </r>
       <r>   82.2948    0.0000 </r>
       <r>   82.4543    0.0000 </r>
       <r>   82.4851    0.0000 </r>
       <r>   83.0253    0.0000 </r>
       <r>   83.1184    0.0000 </r>
       <r>   83.6797    0.0000 </r>
       <r>   83.8270    0.0000 </r>
       <r>   83.9231    0.0000 </r>
       <r>   84.2105    0.0000 </r>
       <r>   84.3311    0.0000 </r>
       <r>   84.6183    0.0000 </r>
       <r>   84.6613    0.0000 </r>
       <r>   84.8472    0.0000 </r>
       <r>   84.9400    0.0000 </r>
       <r>   85.0504    0.0000 </r>
       <r>   85.2029    0.0000 </r>
       <r>   85.4069    0.0000 </r>
       <r>   85.4362    0.0000 </r>
       <r>   86.0062    0.0000 </r>
       <r>   86.0772    0.0000 </r>
       <r>   86.1274    0.0000 </r>
       <r>   86.4064    0.0000 </r>
       <r>   86.4259    0.0000 </r>
       <r>   86.5872    0.0000 </r>
       <r>   87.0219    0.0000 </r>
       <r>   87.0540    0.0000 </r>
       <r>   87.4051    0.0000 </r>
       <r>   87.5456    0.0000 </r>
       <r>   87.6281    0.0000 </r>
       <r>   87.6893    0.0000 </r>
       <r>   87.7694    0.0000 </r>
       <r>   87.8628    0.0000 </r>
       <r>   88.1814    0.0000 </r>
       <r>   88.4175    0.0000 </r>
       <r>   88.8077    0.0000 </r>
       <r>   88.9624    0.0000 </r>
       <r>   89.1116    0.0000 </r>
       <r>   89.1164    0.0000 </r>
       <r>   89.3527    0.0000 </r>
       <r>   90.1022    0.0000 </r>
       <r>   90.1514    0.0000 </r>
       <r>   90.1541    0.0000 </r>
       <r>   90.5435    0.0000 </r>
       <r>   90.5817    0.0000 </r>
       <r>   90.6225    0.0000 </r>
       <r>   90.7796    0.0000 </r>
       <r>   90.8776    0.0000 </r>
       <r>   90.9427    0.0000 </r>
       <r>   91.1693    0.0000 </r>
       <r>   91.2612    0.0000 </r>
       <r>   91.6811    0.0000 </r>
       <r>   91.8827    0.0000 </r>
       <r>   92.1035    0.0000 </r>
       <r>   92.2480    0.0000 </r>
       <r>   92.2647    0.0000 </r>
       <r>   92.3925    0.0000 </r>
       <r>   92.4657    0.0000 </r>
       <r>   92.7122    0.0000 </r>
       <r>   92.7417    0.0000 </r>
       <r>   93.0355    0.0000 </r>
       <r>   93.2906    0.0000 </r>
       <r>   93.6392    0.0000 </r>
       <r>   93.7194    0.0000 </r>
       <r>   93.8359    0.0000 </r>
       <r>   94.0397    0.0000 </r>
       <r>   94.0625    0.0000 </r>
       <r>   94.1577    0.0000 </r>
       <r>   94.2586    0.0000 </r>
       <r>   94.3071    0.0000 </r>
       <r>   94.4977    0.0000 </r>
       <r>   94.5450    0.0000 </r>
       <r>   94.5831    0.0000 </r>
       <r>   94.5901    0.0000 </r>
       <r>   94.6311    0.0000 </r>
       <r>   94.8688    0.0000 </r>
       <r>   94.9071    0.0000 </r>
       <r>   95.0021    0.0000 </r>
       <r>   95.3893    0.0000 </r>
       <r>   95.5503    0.0000 </r>
       <r>   95.5804    0.0000 </r>
       <r>   95.5820    0.0000 </r>
       <r>   95.6431    0.0000 </r>
       <r>   95.7469    0.0000 </r>
       <r>   95.9332    0.0000 </r>
       <r>   96.0912    0.0000 </r>
      </set>
      <set comment="kpoint 4">
       <r>  -18.3111    1.0000 </r>
       <r>  -15.5025    1.0000 </r>
       <r>  -14.9178    1.0000 </r>
       <r>  -12.6026    1.0000 </r>
       <r>  -11.5471    1.0000 </r>
       <r>  -10.1724    1.0000 </r>
       <r>   -8.7139    1.0000 </r>
       <r>   -7.6782    1.0000 </r>
       <r>   -6.9823    1.0000 </r>
       <r>   -5.9473    1.0000 </r>
       <r>   -5.0207    1.0000 </r>
       <r>   -4.0930    1.0000 </r>
       <r>   -3.6340    1.0000 </r>
       <r>   -3.2941    1.0000 </r>
       <r>   -3.0028    1.0000 </r>
       <r>   -1.4707    0.0000 </r>
       <r>    1.5522    0.0000 </r>
       <r>    2.2445    0.0000 </r>
       <r>    2.3849    0.0000 </r>
       <r>    3.3190    0.0000 </r>
       <r>    4.9927    0.0000 </r>
       <r>    6.0211    0.0000 </r>
       <r>    6.3584    0.0000 </r>
       <r>    6.7511    0.0000 </r>
       <r>    7.6029    0.0000 </r>
       <r>    7.8092    0.0000 </r>
       <r>    7.9266    0.0000 </r>
       <r>    8.1647    0.0000 </r>
       <r>    8.2206    0.0000 </r>
       <r>    8.9264    0.0000 </r>
       <r>    9.3180    0.0000 </r>
       <r>    9.4674    0.0000 </r>
       <r>    9.4698    0.0000 </r>
       <r>   10.1391    0.0000 </r>
       <r>   10.1768    0.0000 </r>
       <r>   11.1044    0.0000 </r>
       <r>   11.3401    0.0000 </r>
       <r>   11.7682    0.0000 </r>
       <r>   11.8214    0.0000 </r>
       <r>   12.3380    0.0000 </r>
       <r>   12.3959    0.0000 </r>
       <r>   12.5104    0.0000 </r>
       <r>   13.2333    0.0000 </r>
       <r>   13.2608    0.0000 </r>
       <r>   14.2225    0.0000 </r>
       <r>   14.4784    0.0000 </r>
       <r>   14.8590    0.0000 </r>
       <r>   15.0380    0.0000 </r>
       <r>   15.3045    0.0000 </r>
       <r>   16.0072    0.0000 </r>
       <r>   16.0964    0.0000 </r>
       <r>   16.2607    0.0000 </r>
       <r>   16.4635    0.0000 </r>
       <r>   17.1509    0.0000 </r>
       <r>   17.2038    0.0000 </r>
       <r>   18.7148    0.0000 </r>
       <r>   18.8973    0.0000 </r>
       <r>   18.9961    0.0000 </r>
       <r>   19.1637    0.0000 </r>
       <r>   19.3560    0.0000 </r>
       <r>   19.6341    0.0000 </r>
       <r>   19.6521    0.0000 </r>
       <r>   19.8567    0.0000 </r>
       <r>   20.1793    0.0000 </r>
       <r>   20.2805    0.0000 </r>
       <r>   20.6624    0.0000 </r>
       <r>   20.7056    0.0000 </r>
       <r>   21.0592    0.0000 </r>
       <r>   21.0780    0.0000 </r>
       <r>   21.4988    0.0000 </r>
       <r>   21.9505    0.0000 </r>
       <r>   22.9605    0.0000 </r>
       <r>   23.2358    0.0000 </r>
       <r>   23.2529    0.0000 </r>
       <r>   23.3291    0.0000 </r>
       <r>   23.5515    0.0000 </r>
       <r>   24.0815    0.0000 </r>
       <r>   24.5135    0.0000 </r>
       <r>   24.5438    0.0000 </r>
       <r>   24.5896    0.0000 </r>
       <r>   24.7054    0.0000 </r>
       <r>   25.0584    0.0000 </r>
       <r>   25.2804    0.0000 </r>
       <r>   25.5470    0.0000 </r>
       <r>   25.6479    0.0000 </r>
       <r>   25.6602    0.0000 </r>
       <r>   26.4057    0.0000 </r>
       <r>   26.7615    0.0000 </r>
       <r>   27.3091    0.0000 </r>
       <r>   28.0925    0.0000 </r>
       <r>   28.1525    0.0000 </r>
       <r>   28.1598    0.0000 </r>
       <r>   28.1715    0.0000 </r>
       <r>   28.3197    0.0000 </r>
       <r>   28.6563    0.0000 </r>
       <r>   28.6892    0.0000 </r>
       <r>   29.1922    0.0000 </r>
       <r>   29.5560    0.0000 </r>
       <r>   29.8650    0.0000 </r>
       <r>   29.9607    0.0000 </r>
       <r>   30.0805    0.0000 </r>
[...]
       <r>    82.2392     2.7784   741.6480 </r>
       <r>    82.2920    12.1395   742.2892 </r>
       <r>    82.3448     8.9792   742.7635 </r>
       <r>    82.3976    11.3969   743.3655 </r>
       <r>    82.4505    20.3855   744.4423 </r>
       <r>    82.5033    14.6125   745.2141 </r>
       <r>    82.5561    14.4251   745.9761 </r>
       <r>    82.6089    12.0068   746.6103 </r>
       <r>    82.6617    16.3942   747.4762 </r>
       <r>    82.7146    11.0948   748.0623 </r>
       <r>    82.7674     8.0607   748.4880 </r>
       <r>    82.8202    14.3551   749.2463 </r>
       <r>    82.8730    16.8310   750.1353 </r>
       <r>    82.9258    11.2279   750.7284 </r>
       <r>    82.9787     9.7527   751.2435 </r>
       <r>    83.0315    14.9154   752.0314 </r>
       <r>    83.0843     8.6771   752.4897 </r>
       <r>    83.1371    12.6483   753.1578 </r>
       <r>    83.1900     8.1648   753.5891 </r>
       <r>    83.2428    17.3243   754.5041 </r>
       <r>    83.2956     9.7543   755.0194 </r>
       <r>    83.3484     8.7082   755.4794 </r>
       <r>    83.4012     9.2038   755.9655 </r>
       <r>    83.4541    21.1156   757.0808 </r>
       <r>    83.5069    14.5951   757.8518 </r>
       <r>    83.5597     6.2432   758.1815 </r>
       <r>    83.6125    10.8663   758.7555 </r>
       <r>    83.6653    12.1404   759.3968 </r>
       <r>    83.7182    16.9471   760.2919 </r>
       <r>    83.7710     9.2138   760.7786 </r>
       <r>    83.8238     6.4445   761.1190 </r>
       <r>    83.8766    12.6627   761.7879 </r>
       <r>    83.9294     9.1179   762.2695 </r>
       <r>    83.9823     7.7237   762.6775 </r>
       <r>    84.0351    21.7292   763.8252 </r>
       <r>    84.0879    20.3572   764.9005 </r>
       <r>    84.1407    12.9390   765.5839 </r>
       <r>    84.1935    10.4337   766.1351 </r>
       <r>    84.2464     9.1533   766.6185 </r>
       <r>    84.2992    19.3720   767.6418 </r>
       <r>    84.3520     8.6231   768.0973 </r>
       <r>    84.4048     8.7396   768.5589 </r>
       <r>    84.4576     8.3231   768.9985 </r>
       <r>    84.5105    11.8800   769.6260 </r>
       <r>    84.5633    12.5070   770.2867 </r>
       <r>    84.6161    12.8838   770.9672 </r>
       <r>    84.6689     8.6554   771.4244 </r>
       <r>    84.7218    18.5165   772.4024 </r>
       <r>    84.7746    24.4454   773.6937 </r>
       <r>    84.8274     5.1238   773.9643 </r>
       <r>    84.8802    19.3277   774.9852 </r>
       <r>    84.9330    15.5851   775.8084 </r>
       <r>    84.9859    11.7656   776.4299 </r>
       <r>    85.0387    18.2898   777.3960 </r>
       <r>    85.0915    12.7884   778.0715 </r>
       <r>    85.1443    26.2912   779.4602 </r>
       <r>    85.1971    10.9517   780.0387 </r>
       <r>    85.2500    12.8270   780.7162 </r>
       <r>    85.3028    13.1345   781.4100 </r>
       <r>    85.3556    19.3265   782.4308 </r>
       <r>    85.4084    10.4677   782.9837 </r>
       <r>    85.4612    18.7208   783.9726 </r>
       <r>    85.5141    14.6120   784.7444 </r>
       <r>    85.5669     7.6802   785.1501 </r>
       <r>    85.6197     8.9483   785.6227 </r>
       <r>    85.6725     8.3777   786.0653 </r>
       <r>    85.7253     9.4814   786.5661 </r>
       <r>    85.7782    11.2164   787.1585 </r>
       <r>    85.8310    16.9941   788.0562 </r>
       <r>    85.8838     6.6521   788.4076 </r>
       <r>    85.9366     9.8998   788.9305 </r>
       <r>    85.9895    22.0775   790.0966 </r>
       <r>    86.0423    20.3650   791.1723 </r>
       <r>    86.0951     4.1194   791.3899 </r>
       <r>    86.1479    10.1649   791.9268 </r>
       <r>    86.2007    13.1018   792.6189 </r>
       <r>    86.2536    12.4894   793.2786 </r>
       <r>    86.3064    19.9841   794.3341 </r>
       <r>    86.3592     8.1464   794.7644 </r>
       <r>    86.4120     8.4537   795.2110 </r>
       <r>    86.4648    21.8965   796.3676 </r>
       <r>    86.5177    13.4973   797.0805 </r>
       <r>    86.5705     6.6333   797.4309 </r>
       <r>    86.6233    22.0589   798.5961 </r>
       <r>    86.6761    13.4581   799.3069 </r>
       <r>    86.7289    10.8044   799.8776 </r>
       <r>    86.7818    16.2980   800.7385 </r>
       <r>    86.8346     3.4055   800.9184 </r>
       <r>    86.8874    10.5576   801.4760 </r>
       <r>    86.9402     8.6868   801.9349 </r>
       <r>    86.9930    14.9061   802.7222 </r>
       <r>    87.0459     6.0509   803.0418 </r>
       <r>    87.0987    11.2659   803.6369 </r>
       <r>    87.1515     7.2185   804.0182 </r>
       <r>    87.2043    10.5062   804.5732 </r>
       <r>    87.2571     9.8840   805.0952 </r>
       <r>    87.3100     9.0137   805.5713 </r>
       <r>    87.3628    13.9417   806.3078 </r>
       <r>    87.4156    19.5815   807.3421 </r>
       <r>    87.4684     9.8851   807.8642 </r>
       <r>    87.5213    16.0744   808.7133 </r>
       <r>    87.5741    11.3171   809.3110 </r>
       <r>    87.6269     7.1403   809.6882 </r>
       <r>    87.6797    11.8093   810.3120 </r>
       <r>    87.7325     5.9731   810.6275 </r>
       <r>    87.7854    13.2613   811.3280 </r>
       <r>    87.8382    15.3561   812.1391 </r>
       <r>    87.8910     8.9219   812.6103 </r>
       <r>    87.9438     8.8650   813.0786 </r>
       <r>    87.9966    20.2512   814.1483 </r>
       <r>    88.0495    13.6767   814.8707 </r>
       <r>    88.1023    12.4398   815.5278 </r>
       <r>    88.1551    19.3501   816.5499 </r>
       <r>    88.2079     9.0686   817.0289 </r>
       <r>    88.2607     8.2994   817.4673 </r>
       <r>    88.3136     3.7709   817.6664 </r>
       <r>    88.3664    15.1785   818.4682 </r>
       <r>    88.4192    11.5686   819.0792 </r>
       <r>    88.4720    21.0636   820.1918 </r>
       <r>    88.5248    13.5971   820.9101 </r>
       <r>    88.5777    11.1280   821.4978 </r>
       <r>    88.6305    13.0564   822.1875 </r>
       <r>    88.6833    12.3261   822.8386 </r>
       <r>    88.7361    24.1925   824.1164 </r>
       <r>    88.7889     7.7210   824.5243 </r>
       <r>    88.8418    19.7817   825.5692 </r>
       <r>    88.8946    14.5642   826.3384 </r>
       <r>    88.9474    12.2004   826.9829 </r>
       <r>    89.0002    12.8399   827.6611 </r>
       <r>    89.0531    14.0214   828.4017 </r>
       <r>    89.1059     4.3470   828.6313 </r>
       <r>    89.1587    16.0068   829.4768 </r>
       <r>    89.2115    12.7373   830.1496 </r>
       <r>    89.2643     9.2486   830.6381 </r>
       <r>    89.3172    14.2029   831.3883 </r>
       <r>    89.3700    17.0156   832.2871 </r>
       <r>    89.4228    13.7556   833.0137 </r>
       <r>    89.4756    12.4449   833.6710 </r>
       <r>    89.5284    17.1715   834.5781 </r>
       <r>    89.5813    11.7219   835.1972 </r>
       <r>    89.6341    11.7213   835.8163 </r>
       <r>    89.6869     2.4165   835.9440 </r>
       <r>    89.7397     8.1409   836.3740 </r>
       <r>    89.7925     8.7217   836.8347 </r>
       <r>    89.8454    11.7407   837.4548 </r>
       <r>    89.8982    13.2977   838.1572 </r>
       <r>    89.9510    11.0640   838.7416 </r>
       <r>    90.0038     8.4159   839.1862 </r>
       <r>    90.0566    11.2787   839.7819 </r>
       <r>    90.1095    11.5010   840.3894 </r>
       <r>    90.1623    16.8457   841.2792 </r>
       <r>    90.2151     5.5204   841.5708 </r>
       <r>    90.2679    10.2429   842.1118 </r>
       <r>    90.3207    11.3533   842.7115 </r>
       <r>    90.3736     9.8122   843.2298 </r>
       <r>    90.4264    11.5769   843.8413 </r>
       <r>    90.4792     8.9710   844.3152 </r>
       <r>    90.5320    10.9769   844.8950 </r>
       <r>    90.5849    10.9783   845.4749 </r>
       <r>    90.6377    14.3033   846.2304 </r>
       <r>    90.6905    10.5992   846.7902 </r>
       <r>    90.7433    17.6284   847.7214 </r>
       <r>    90.7961    13.3806   848.4282 </r>
       <r>    90.8490    14.4761   849.1928 </r>
       <r>    90.9018    15.6930   850.0217 </r>
       <r>    90.9546    13.1528   850.7165 </r>
       <r>    91.0074    10.6801   851.2806 </r>
       <r>    91.0602    22.3024   852.4586 </r>
       <r>    91.1131    12.5282   853.1204 </r>
       <r>    91.1659    13.7570   853.8470 </r>
       <r>    91.2187    10.3399   854.3932 </r>
       <r>    91.2715     7.3633   854.7821 </r>
       <r>    91.3243    11.9188   855.4117 </r>
       <r>    91.3772    15.8370   856.2482 </r>
       <r>    91.4300     2.9210   856.4025 </r>
       <r>    91.4828    10.5057   856.9574 </r>
       <r>    91.5356    19.6279   857.9942 </r>
       <r>    91.5884    11.7702   858.6159 </r>
       <r>    91.6413    17.1180   859.5201 </r>
       <r>    91.6941    15.3112   860.3288 </r>
       <r>    91.7469    13.8641   861.0611 </r>
       <r>    91.7997    10.8121   861.6322 </r>
       <r>    91.8525    11.6796   862.2492 </r>
       <r>    91.9054    13.5990   862.9675 </r>
       <r>    91.9582    21.6345   864.1102 </r>
       <r>    92.0110     7.4252   864.5024 </r>
       <r>    92.0638    20.2038   865.5696 </r>
       <r>    92.1167    14.3501   866.3276 </r>
       <r>    92.1695     5.6464   866.6258 </r>
       <r>    92.2223     9.4631   867.1257 </r>
       <r>    92.2751    23.0217   868.3417 </r>
       <r>    92.3279    19.7955   869.3873 </r>
       <r>    92.3808     8.7747   869.8508 </r>
       <r>    92.4336     6.6605   870.2026 </r>
       <r>    92.4864    15.5033   871.0215 </r>
       <r>    92.5392    10.9250   871.5986 </r>
       <r>    92.5920    16.5563   872.4731 </r>
       <r>    92.6449     8.9507   872.9459 </r>
       <r>    92.6977     8.5985   873.4001 </r>
       <r>    92.7505    24.5230   874.6954 </r>
       <r>    92.8033    15.8737   875.5339 </r>
       <r>    92.8561    17.6232   876.4647 </r>
       <r>    92.9090    16.7991   877.3521 </r>
       <r>    92.9618    16.4691   878.2220 </r>
       <r>    93.0146     7.4926   878.6178 </r>
       <r>    93.0674     9.4430   879.1165 </r>
       <r>    93.1202     7.1955   879.4966 </r>
       <r>    93.1731    11.4850   880.1033 </r>
       <r>    93.2259    16.3570   880.9672 </r>
       <r>    93.2787    14.8723   881.7528 </r>
       <r>    93.3315    16.8249   882.6415 </r>
       <r>    93.3843    21.5922   883.7820 </r>
       <r>    93.4372    16.7891   884.6688 </r>
       <r>    93.4900    15.1138   885.4672 </r>
       <r>    93.5428    16.9232   886.3611 </r>
       <r>    93.5956     9.7475   886.8759 </r>
       <r>    93.6485    18.1014   887.8321 </r>
       <r>    93.7013    21.2404   888.9540 </r>
       <r>    93.7541    12.9951   889.6404 </r>
       <r>    93.8069    11.2688   890.2356 </r>
       <r>    93.8597    17.4073   891.1551 </r>
       <r>    93.9126     8.1068   891.5833 </r>
       <r>    93.9654     7.4329   891.9759 </r>
       <r>    94.0182    15.8519   892.8133 </r>
       <r>    94.0710    17.3856   893.7316 </r>
       <r>    94.1238     9.4548   894.2310 </r>
       <r>    94.1767     5.6832   894.5312 </r>
       <r>    94.2295     8.4493   894.9775 </r>
       <r>    94.2823    10.7455   895.5451 </r>
       <r>    94.3351    12.4955   896.2051 </r>
       <r>    94.3879    13.0787   896.8959 </r>
       <r>    94.4408    10.2492   897.4373 </r>
       <r>    94.4936    19.1974   898.4513 </r>
       <r>    94.5464    21.4687   899.5853 </r>
       <r>    94.5992    17.3476   900.5016 </r>
       <r>    94.6520    11.8986   901.1301 </r>
       <r>    94.7049     6.7942   901.4890 </r>
       <r>    94.7577    15.7665   902.3218 </r>
       <r>    94.8105    10.1848   902.8597 </r>
       <r>    94.8633    12.1739   903.5028 </r>
       <r>    94.9161     8.6589   903.9601 </r>
       <r>    94.9690    14.0172   904.7005 </r>
       <r>    95.0218     3.4573   904.8832 </r>
       <r>    95.0746    10.6217   905.4442 </r>
       <r>    95.1274     7.3562   905.8328 </r>
       <r>    95.1803    11.7259   906.4521 </r>
       <r>    95.2331     7.4797   906.8472 </r>
       <r>    95.2859     7.8419   907.2614 </r>
       <r>    95.3387     1.5043   907.3409 </r>
       <r>    95.3915    11.0281   907.9234 </r>
       <r>    95.4444     7.6847   908.3293 </r>
       <r>    95.4972     5.8598   908.6388 </r>
       <r>    95.5500     7.8809   909.0551 </r>
       <r>    95.6028     7.5696   909.4549 </r>
       <r>    95.6556     5.7739   909.7599 </r>
       <r>    95.7085     3.2283   909.9304 </r>
       <r>    95.7613     4.4148   910.1636 </r>
       <r>    95.8141     5.1495   910.4356 </r>
       <r>    95.8669     2.0076   910.5417 </r>
       <r>    95.9197     1.0457   910.5969 </r>
       <r>    95.9726     4.8206   910.8515 </r>
       <r>    96.0254     3.2778   911.0247 </r>
       <r>    96.0782     0.1116   911.0306 </r>
       <r>    96.1310     3.9790   911.2407 </r>
       <r>    96.1838     3.7907   911.4410 </r>
       <r>    96.2367     2.3289   911.5640 </r>
       <r>    96.2895     0.8921   911.6111 </r>
       <r>    96.3423     0.5542   911.6404 </r>
       <r>    96.3951     0.2347   911.6528 </r>
       <r>    96.4480     1.4793   911.7309 </r>
       <r>    96.5008     1.6597   911.8186 </r>
       <r>    96.5536     0.0163   911.8194 </r>
       <r>    96.6064     1.5382   911.9007 </r>
       <r>    96.6592     1.5108   911.9805 </r>
       <r>    96.7121     0.3692   912.0000 </r>
       <r>    96.7649     0.0000   912.0000 </r>
       <r>    96.8177     0.0000   912.0000 </r>
       <r>    96.8705     0.0000   912.0000 </r>
       <r>    96.9233     0.0000   912.0000 </r>
       <r>    96.9762     0.0000   912.0000 </r>
       <r>    97.0290     0.0000   912.0000 </r>
       <r>    97.0818     0.0000   912.0000 </r>
       <r>    97.1346     0.0000   912.0000 </r>
       <r>    97.1874     0.0000   912.0000 </r>
       <r>    97.2403     0.0000   912.0000 </r>
       <r>    97.2931     0.0000   912.0000 </r>
       <r>    97.3459     0.0000   912.0000 </r>
       <r>    97.3987     0.0000   912.0000 </r>
       <r>    97.4515     0.0000   912.0000 </r>
       <r>    97.5044     0.0000   912.0000 </r>
       <r>    97.5572     0.0000   912.0000 </r>
       <r>    97.6100     0.0000   912.0000 </r>
       <r>    97.6628     0.0000   912.0000 </r>
       <r>    97.7156     0.0000   912.0000 </r>
       <r>    97.7685     0.0000   912.0000 </r>
       <r>    97.8213     0.0000   912.0000 </r>
       <r>    97.8741     0.0000   912.0000 </r>
       <r>    97.9269     0.0000   912.0000 </r>
       <r>    97.9798     0.0000   912.0000 </r>
       <r>    98.0326     0.0000   912.0000 </r>
       <r>    98.0854     0.0000   912.0000 </r>
       <r>    98.1382     0.0000   912.0000 </r>
       <r>    98.1910     0.0000   912.0000 </r>
       <r>    98.2439     0.0000   912.0000 </r>
       <r>    98.2967     0.0000   912.0000 </r>
       <r>    98.3495     0.0000   912.0000 </r>
       <r>    98.4023     0.0000   912.0000 </r>
       <r>    98.4551     0.0000   912.0000 </r>
       <r>    98.5080     0.0000   912.0000 </r>
       <r>    98.5608     0.0000   912.0000 </r>
       <r>    98.6136     0.0000   912.0000 </r>
       <r>    98.6664     0.0000   912.0000 </r>
       <r>    98.7192     0.0000   912.0000 </r>
       <r>    98.7721     0.0000   912.0000 </r>
       <r>    98.8249     0.0000   912.0000 </r>
       <r>    98.8777     0.0000   912.0000 </r>
       <r>    98.9305     0.0000   912.0000 </r>
       <r>    98.9833     0.0000   912.0000 </r>
       <r>    99.0362     0.0000   912.0000 </r>
       <r>    99.0890     0.0000   912.0000 </r>
       <r>    99.1418     0.0000   912.0000 </r>
       <r>    99.1946     0.0000   912.0000 </r>
       <r>    99.2474     0.0000   912.0000 </r>
       <r>    99.3003     0.0000   912.0000 </r>
       <r>    99.3531     0.0000   912.0000 </r>
       <r>    99.4059     0.0000   912.0000 </r>
       <r>    99.4587     0.0000   912.0000 </r>
       <r>    99.5116     0.0000   912.0000 </r>
       <r>    99.5644     0.0000   912.0000 </r>
       <r>    99.6172     0.0000   912.0000 </r>
       <r>    99.6700     0.0000   912.0000 </r>
       <r>    99.7228     0.0000   912.0000 </r>
       <r>    99.7757     0.0000   912.0000 </r>
       <r>    99.8285     0.0000   912.0000 </r>
       <r>    99.8813     0.0000   912.0000 </r>
       <r>    99.9341     0.0000   912.0000 </r>
       <r>    99.9869     0.0000   912.0000 </r>
       <r>   100.0398     0.0000   912.0000 </r>
       <r>   100.0926     0.0000   912.0000 </r>
       <r>   100.1454     0.0000   912.0000 </r>
       <r>   100.1982     0.0000   912.0000 </r>
       <r>   100.2510     0.0000   912.0000 </r>
       <r>   100.3039     0.0000   912.0000 </r>
       <r>   100.3567     0.0000   912.0000 </r>
       <r>   100.4095     0.0000   912.0000 </r>
       <r>   100.4623     0.0000   912.0000 </r>
       <r>   100.5151     0.0000   912.0000 </r>
       <r>   100.5680     0.0000   912.0000 </r>
       <r>   100.6208     0.0000   912.0000 </r>
       <r>   100.6736     0.0000   912.0000 </r>
       <r>   100.7264     0.0000   912.0000 </r>
       <r>   100.7792     0.0000   912.0000 </r>
       <r>   100.8321     0.0000   912.0000 </r>
       <r>   100.8849     0.0000   912.0000 </r>
       <r>   100.9377     0.0000   912.0000 </r>
       <r>   100.9905     0.0000   912.0000 </r>
       <r>   101.0434     0.0000   912.0000 </r>
       <r>   101.0962     0.0000   912.0000 </r>
       <r>   101.1490     0.0000   912.0000 </r>
       <r>   101.2018     0.0000   912.0000 </r>
       <r>   101.2546     0.0000   912.0000 </r>
       <r>   101.3075     0.0000   912.0000 </r>
       <r>   101.3603     0.0000   912.0000 </r>
       <r>   101.4131     0.0000   912.0000 </r>
       <r>   101.4659     0.0000   912.0000 </r>
       <r>   101.5187     0.0000   912.0000 </r>
       <r>   101.5716     0.0000   912.0000 </r>
       <r>   101.6244     0.0000   912.0000 </r>
       <r>   101.6772     0.0000   912.0000 </r>
       <r>   101.7300     0.0000   912.0000 </r>
       <r>   101.7828     0.0000   912.0000 </r>
       <r>   101.8357     0.0000   912.0000 </r>
       <r>   101.8885     0.0000   912.0000 </r>
       <r>   101.9413     0.0000   912.0000 </r>
       <r>   101.9941     0.0000   912.0000 </r>
       <r>   102.0469     0.0000   912.0000 </r>
       <r>   102.0998     0.0000   912.0000 </r>
       <r>   102.1526     0.0000   912.0000 </r>
       <r>   102.2054     0.0000   912.0000 </r>
       <r>   102.2582     0.0000   912.0000 </r>
       <r>   102.3110     0.0000   912.0000 </r>
       <r>   102.3639     0.0000   912.0000 </r>
       <r>   102.4167     0.0000   912.0000 </r>
      </set>
     </set>
    </array>
   </total>
  </dos>
 </calculation>
 <structure name="finalpos" >
  <crystal>
   <varray name="basis" >
    <v>       4.48084843       2.58701885       0.00000000 </v>
    <v>      -4.48084843       2.58701885       0.00000000 </v>
    <v>       0.00000000       0.00000000       8.52022140 </v>
   </varray>
   <i name="volume">    197.53348383 </i>
   <varray name="rec_basis" >
    <v>       0.11158601       0.19327265       0.00000000 </v>
    <v>      -0.11158601       0.19327265       0.00000000 </v>
    <v>       0.00000000       0.00000000       0.11736784 </v>
   </varray>
  </crystal>
  <varray name="positions" >
   <v>       0.33333300       0.66666600       0.25000000 </v>
   <v>       0.66666600       0.33333300       0.25000000 </v>
   <v>       0.15869124       0.31738348       0.25000000 </v>
   <v>       0.31738348       0.15869124       0.25000000 </v>
   <v>       0.15869124       0.84130776       0.25000000 </v>
   <v>       0.84130776       0.15869124       0.25000000 </v>
   <v>       0.68261552       0.84130776       0.25000000 </v>
   <v>       0.84130776       0.68261552       0.25000000 </v>
  </varray>
 </structure>
</modeling>
