   8   8   0   0
  0.2469169E+02  0.5174038E-09  0.5174038E-09  0.8520222E-09  0.5000000E-15
  1.000000000000000E-004
  CAR 
 BC3-optical                             
     97.75653317    -24.07827569 2400     -2.38644879      1.00000000
    -24.078  0.0000E+00  0.0000E+00
    -24.027  0.0000E+00  0.0000E+00
    -23.977  0.0000E+00  0.0000E+00
    -23.926  0.0000E+00  0.0000E+00
    -23.875  0.0000E+00  0.0000E+00
    -23.824  0.0000E+00  0.0000E+00
    -23.774  0.0000E+00  0.0000E+00
    -23.723  0.0000E+00  0.0000E+00
    -23.672  0.0000E+00  0.0000E+00
    -23.621  0.0000E+00  0.0000E+00
    -23.570  0.0000E+00  0.0000E+00
    -23.520  0.0000E+00  0.0000E+00
    -23.469  0.0000E+00  0.0000E+00
    -23.418  0.0000E+00  0.0000E+00
    -23.367  0.0000E+00  0.0000E+00
    -23.316  0.0000E+00  0.0000E+00
    -23.266  0.0000E+00  0.0000E+00
    -23.215  0.0000E+00  0.0000E+00
    -23.164  0.0000E+00  0.0000E+00
    -23.113  0.0000E+00  0.0000E+00
    -23.063  0.0000E+00  0.0000E+00
    -23.012  0.0000E+00  0.0000E+00
    -22.961  0.0000E+00  0.0000E+00
    -22.910  0.0000E+00  0.0000E+00
    -22.859  0.0000E+00  0.0000E+00
    -22.809  0.0000E+00  0.0000E+00
    -22.758  0.0000E+00  0.0000E+00
    -22.707  0.0000E+00  0.0000E+00
    -22.656  0.0000E+00  0.0000E+00
    -22.605  0.0000E+00  0.0000E+00
    -22.555  0.0000E+00  0.0000E+00
    -22.504  0.0000E+00  0.0000E+00
    -22.453  0.0000E+00  0.0000E+00
    -22.402  0.0000E+00  0.0000E+00
    -22.352  0.0000E+00  0.0000E+00
    -22.301  0.0000E+00  0.0000E+00
    -22.250  0.0000E+00  0.0000E+00
    -22.199  0.0000E+00  0.0000E+00
    -22.148  0.0000E+00  0.0000E+00
    -22.098  0.0000E+00  0.0000E+00
    -22.047  0.0000E+00  0.0000E+00
    -21.996  0.0000E+00  0.0000E+00
    -21.945  0.0000E+00  0.0000E+00
    -21.894  0.0000E+00  0.0000E+00
    -21.844  0.0000E+00  0.0000E+00
    -21.793  0.0000E+00  0.0000E+00
    -21.742  0.0000E+00  0.0000E+00
    -21.691  0.0000E+00  0.0000E+00
    -21.641  0.0000E+00  0.0000E+00
    -21.590  0.0000E+00  0.0000E+00
    -21.539  0.0000E+00  0.0000E+00
    -21.488  0.0000E+00  0.0000E+00
    -21.437  0.0000E+00  0.0000E+00
    -21.387  0.0000E+00  0.0000E+00
    -21.336  0.0000E+00  0.0000E+00
    -21.285  0.0000E+00  0.0000E+00
    -21.234  0.0000E+00  0.0000E+00
    -21.183  0.0000E+00  0.0000E+00
    -21.133  0.0000E+00  0.0000E+00
    -21.082  0.0000E+00  0.0000E+00
    -21.031  0.0000E+00  0.0000E+00
    -20.980  0.0000E+00  0.0000E+00
    -20.930  0.0000E+00  0.0000E+00
    -20.879  0.0000E+00  0.0000E+00
    -20.828  0.0000E+00  0.0000E+00
    -20.777  0.0000E+00  0.0000E+00
    -20.726  0.0000E+00  0.0000E+00
    -20.676  0.0000E+00  0.0000E+00
    -20.625  0.0000E+00  0.0000E+00
    -20.574  0.0000E+00  0.0000E+00
    -20.523  0.0000E+00  0.0000E+00
    -20.472  0.0000E+00  0.0000E+00
    -20.422  0.0000E+00  0.0000E+00
    -20.371  0.0000E+00  0.0000E+00
    -20.320  0.0000E+00  0.0000E+00
    -20.269  0.0000E+00  0.0000E+00
    -20.219  0.0000E+00  0.0000E+00
    -20.168  0.0000E+00  0.0000E+00
    -20.117  0.0000E+00  0.0000E+00
    -20.066  0.0000E+00  0.0000E+00
    -20.015  0.0000E+00  0.0000E+00
    -19.965  0.0000E+00  0.0000E+00
    -19.914  0.0000E+00  0.0000E+00
    -19.863  0.0000E+00  0.0000E+00
    -19.812  0.0000E+00  0.0000E+00
    -19.761  0.0000E+00  0.0000E+00
    -19.711  0.0000E+00  0.0000E+00
    -19.660  0.0000E+00  0.0000E+00
    -19.609  0.0000E+00  0.0000E+00
    -19.558  0.0000E+00  0.0000E+00
    -19.508  0.0000E+00  0.0000E+00
    -19.457  0.0000E+00  0.0000E+00
    -19.406  0.0000E+00  0.0000E+00
    -19.355  0.0000E+00  0.0000E+00
    -19.304  0.0000E+00  0.0000E+00
    -19.254  0.0000E+00  0.0000E+00
    -19.203  0.0000E+00  0.0000E+00
    -19.152  0.0000E+00  0.0000E+00
    -19.101  0.0000E+00  0.0000E+00
    -19.050  0.0000E+00  0.0000E+00
    -19.000  0.0000E+00  0.0000E+00
    -18.949  0.0000E+00  0.0000E+00
    -18.898  0.0000E+00  0.0000E+00
    -18.847  0.0000E+00  0.0000E+00
    -18.797  0.0000E+00  0.0000E+00
    -18.746  0.0000E+00  0.0000E+00
    -18.695  0.0000E+00  0.0000E+00
    -18.644  0.0000E+00  0.0000E+00
    -18.593  0.8167E-14  0.4148E-15
    -18.543  0.1018E+00  0.5169E-02
    -18.492  0.1811E+01  0.9712E-01
    -18.441  0.1906E+01  0.1939E+00
    -18.390  0.1378E+01  0.2639E+00
    -18.339  0.3271E+01  0.4300E+00
    -18.289  0.1650E+01  0.5138E+00
    -18.238  0.1236E+01  0.5766E+00
    -18.187  0.3688E+01  0.7639E+00
    -18.136  0.1640E+01  0.8472E+00
    -18.086  0.3527E+01  0.1026E+01
    -18.035  0.3269E+01  0.1192E+01
    -17.984  0.3340E+01  0.1362E+01
    -17.933  0.7452E+01  0.1740E+01
    -17.882  0.4623E+01  0.1975E+01
    -17.832  0.4880E+00  0.2000E+01
    -17.781  0.0000E+00  0.2000E+01
    -17.730  0.0000E+00  0.2000E+01
    -17.679  0.0000E+00  0.2000E+01
    -17.628  0.0000E+00  0.2000E+01
    -17.578  0.0000E+00  0.2000E+01
    -17.527  0.0000E+00  0.2000E+01
    -17.476  0.0000E+00  0.2000E+01
    -17.425  0.0000E+00  0.2000E+01
    -17.375  0.0000E+00  0.2000E+01
    -17.324  0.0000E+00  0.2000E+01
    -17.273  0.0000E+00  0.2000E+01
    -17.222  0.0000E+00  0.2000E+01
    -17.171  0.0000E+00  0.2000E+01
    -17.121  0.0000E+00  0.2000E+01
    -17.070  0.0000E+00  0.2000E+01
    -17.019  0.0000E+00  0.2000E+01
    -16.968  0.0000E+00  0.2000E+01
    -16.917  0.0000E+00  0.2000E+01
    -16.867  0.0000E+00  0.2000E+01
    -16.816  0.0000E+00  0.2000E+01
    -16.765  0.0000E+00  0.2000E+01
    -16.714  0.0000E+00  0.2000E+01
    -16.664  0.0000E+00  0.2000E+01
    -16.613  0.0000E+00  0.2000E+01
    -16.562  0.0000E+00  0.2000E+01
    -16.511  0.0000E+00  0.2000E+01
    -16.460  0.0000E+00  0.2000E+01
    -16.410  0.0000E+00  0.2000E+01
    -16.359  0.0000E+00  0.2000E+01
    -16.308  0.1614E-06  0.2000E+01
    -16.257  0.8061E+00  0.2041E+01
    -16.206  0.3277E+01  0.2207E+01
    -16.156  0.3047E+01  0.2362E+01
    -16.105  0.7487E+00  0.2400E+01
    -16.054  0.6058E+01  0.2708E+01
    -16.003  0.3805E+01  0.2901E+01
    -15.953  0.1197E+01  0.2962E+01
    -15.902  0.1026E+01  0.3014E+01
    -15.851  0.4916E+01  0.3264E+01
    -15.800  0.5526E-02  0.3264E+01
    -15.749  0.8957E-06  0.3264E+01
    -15.699  0.5197E+01  0.3528E+01
    -15.648  0.1366E+01  0.3597E+01
    -15.597  0.6007E+00  0.3628E+01
    -15.546  0.2677E+01  0.3764E+01
    -15.495  0.1380E+01  0.3834E+01
    -15.445  0.1961E+01  0.3933E+01
    -15.394  0.3226E+01  0.4097E+01
    -15.343  0.9310E-01  0.4102E+01
    -15.292  0.6470E+01  0.4431E+01
    -15.242  0.1484E-02  0.4431E+01
    -15.191  0.3281E+01  0.4597E+01
    -15.140  0.3570E+01  0.4779E+01
    -15.089  0.5025E+01  0.5034E+01
    -15.038  0.3742E+01  0.5224E+01
    -14.988  0.2968E+01  0.5375E+01
    -14.937  0.4164E+00  0.5396E+01
    -14.886  0.4789E+01  0.5639E+01
    -14.835  0.1412E-07  0.5639E+01
    -14.784  0.2543E+01  0.5768E+01
    -14.734  0.2380E+01  0.5889E+01
    -14.683  0.1441E+01  0.5962E+01
    -14.632  0.7413E+00  0.6000E+01
    -14.581  0.5048E-02  0.6000E+01
    -14.531  0.0000E+00  0.6000E+01
    -14.480  0.0000E+00  0.6000E+01
    -14.429  0.0000E+00  0.6000E+01
    -14.378  0.0000E+00  0.6000E+01
    -14.327  0.0000E+00  0.6000E+01
    -14.277  0.0000E+00  0.6000E+01
    -14.226  0.0000E+00  0.6000E+01
    -14.175  0.0000E+00  0.6000E+01
    -14.124  0.0000E+00  0.6000E+01
    -14.073  0.0000E+00  0.6000E+01
    -14.023  0.0000E+00  0.6000E+01
    -13.972  0.0000E+00  0.6000E+01
    -13.921  0.0000E+00  0.6000E+01
    -13.870  0.0000E+00  0.6000E+01
    -13.820  0.0000E+00  0.6000E+01
    -13.769  0.0000E+00  0.6000E+01
    -13.718  0.0000E+00  0.6000E+01
    -13.667  0.0000E+00  0.6000E+01
    -13.616  0.0000E+00  0.6000E+01
    -13.566  0.0000E+00  0.6000E+01
    -13.515  0.0000E+00  0.6000E+01
    -13.464  0.0000E+00  0.6000E+01
    -13.413  0.0000E+00  0.6000E+01
    -13.363  0.0000E+00  0.6000E+01
    -13.312  0.0000E+00  0.6000E+01
    -13.261  0.0000E+00  0.6000E+01
    -13.210  0.0000E+00  0.6000E+01
    -13.159  0.0000E+00  0.6000E+01
    -13.109  0.0000E+00  0.6000E+01
    -13.058  0.0000E+00  0.6000E+01
    -13.007  0.0000E+00  0.6000E+01
    -12.956  0.0000E+00  0.6000E+01
    -12.905  0.0000E+00  0.6000E+01
    -12.855  0.7434E-01  0.6004E+01
    -12.804  0.2317E+01  0.6121E+01
    -12.753  0.7150E-01  0.6125E+01
    -12.702  0.1863E+01  0.6220E+01
    -12.652  0.3248E+01  0.6385E+01
    -12.601  0.4085E+01  0.6592E+01
    -12.550  0.1745E+01  0.6681E+01
    -12.499  0.2184E+01  0.6792E+01
    -12.448  0.1551E+01  0.6870E+01
    -12.398  0.3372E+01  0.7042E+01
    -12.347  0.1916E+01  0.7139E+01
    -12.296  0.1009E+02  0.7651E+01
    -12.245  0.1667E+01  0.7736E+01
    -12.194  0.1337E+01  0.7804E+01
    -12.144  0.3036E+00  0.7819E+01
    -12.093  0.7343E-02  0.7820E+01
    -12.042  0.1650E+01  0.7904E+01
    -11.991  0.1625E+01  0.7986E+01
    -11.941  0.1730E+00  0.7995E+01
    -11.890  0.4661E+01  0.8232E+01
    -11.839  0.1170E+00  0.8238E+01
    -11.788  0.3254E+01  0.8403E+01
    -11.737  0.5588E-02  0.8403E+01
    -11.687  0.1635E+01  0.8486E+01
    -11.636  0.0000E+00  0.8486E+01
    -11.585  0.6905E-07  0.8486E+01
    -11.534  0.1585E+01  0.8567E+01
    -11.483  0.1149E+01  0.8625E+01
    -11.433  0.5115E+01  0.8885E+01
    -11.382  0.2658E+01  0.9020E+01
    -11.331  0.4323E+00  0.9042E+01
    -11.280  0.4464E-09  0.9042E+01
    -11.230  0.2805E+01  0.9184E+01
    -11.179  0.7504E+00  0.9222E+01
    -11.128  0.6581E-02  0.9223E+01
    -11.077  0.4909E+01  0.9472E+01
    -11.026  0.1708E+01  0.9559E+01
    -10.976  0.3222E+01  0.9722E+01
    -10.925  0.1864E-05  0.9722E+01
    -10.874  0.1629E+01  0.9805E+01
    -10.823  0.1043E+01  0.9858E+01
    -10.772  0.6097E+00  0.9889E+01
    -10.722  0.3238E+00  0.9905E+01
    -10.671  0.6139E+01  0.1022E+02
    -10.620  0.1008E+00  0.1022E+02
    -10.569  0.3098E-10  0.1022E+02
    -10.519  0.6149E+00  0.1025E+02
    -10.468  0.2055E+00  0.1026E+02
    -10.417  0.0000E+00  0.1026E+02
    -10.366  0.6743E-05  0.1026E+02
    -10.315  0.3265E+01  0.1043E+02
    -10.265  0.1638E-01  0.1043E+02
    -10.214  0.3841E-08  0.1043E+02
    -10.163  0.1489E+01  0.1051E+02
    -10.112  0.1522E+00  0.1051E+02
    -10.061  0.0000E+00  0.1051E+02
    -10.011  0.0000E+00  0.1051E+02
     -9.960  0.7878E-11  0.1051E+02
     -9.909  0.2014E+00  0.1052E+02
     -9.858  0.7208E-01  0.1053E+02
     -9.808  0.1412E-13  0.1053E+02
     -9.757  0.8765E+00  0.1057E+02
     -9.706  0.5686E+01  0.1086E+02
     -9.655  0.1377E-02  0.1086E+02
     -9.604  0.5951E-14  0.1086E+02
     -9.554  0.5756E+00  0.1089E+02
     -9.503  0.1612E+01  0.1097E+02
     -9.452  0.1497E+01  0.1105E+02
     -9.401  0.1435E+00  0.1106E+02
     -9.350  0.3279E+01  0.1122E+02
     -9.300  0.1643E+01  0.1131E+02
     -9.249  0.5445E-03  0.1131E+02
     -9.198  0.4331E-08  0.1131E+02
     -9.147  0.1494E+01  0.1138E+02
     -9.097  0.4995E+01  0.1164E+02
     -9.046  0.1733E+01  0.1172E+02
     -8.995  0.1625E+01  0.1181E+02
     -8.944  0.6272E+01  0.1212E+02
     -8.893  0.1827E+01  0.1222E+02
     -8.843  0.1027E+00  0.1222E+02
     -8.792  0.3131E+01  0.1238E+02
     -8.741  0.1504E+00  0.1239E+02
     -8.690  0.1641E+01  0.1247E+02
     -8.639  0.8205E+00  0.1251E+02
     -8.589  0.3127E-04  0.1251E+02
     -8.538  0.1366E-14  0.1251E+02
     -8.487  0.3570E+00  0.1253E+02
     -8.436  0.4344E+01  0.1275E+02
     -8.386  0.6011E+01  0.1306E+02
     -8.335  0.4539E+01  0.1329E+02
     -8.284  0.5276E+01  0.1356E+02
     -8.233  0.1625E+01  0.1364E+02
     -8.182  0.0000E+00  0.1364E+02
     -8.132  0.4430E-10  0.1364E+02
     -8.081  0.1203E+01  0.1370E+02
     -8.030  0.4432E+00  0.1372E+02
     -7.979  0.1637E+01  0.1381E+02
     -7.928  0.5857E+01  0.1410E+02
     -7.878  0.7053E+00  0.1414E+02
     -7.827  0.8201E+00  0.1418E+02
     -7.776  0.3271E+01  0.1435E+02
     -7.725  0.1087E-01  0.1435E+02
     -7.675  0.1154E+01  0.1441E+02
     -7.624  0.6514E+01  0.1474E+02
     -7.573  0.3413E+01  0.1491E+02
     -7.522  0.5328E+01  0.1518E+02
     -7.471  0.0000E+00  0.1518E+02
     -7.421  0.1822E-14  0.1518E+02
     -7.370  0.4077E+00  0.1520E+02
     -7.319  0.3208E+01  0.1536E+02
     -7.268  0.3840E+01  0.1556E+02
     -7.217  0.5534E+01  0.1584E+02
     -7.167  0.3642E+01  0.1603E+02
     -7.116  0.2970E+00  0.1604E+02
     -7.065  0.9873E+00  0.1609E+02
     -7.014  0.3439E+01  0.1627E+02
     -6.964  0.4893E+01  0.1651E+02
     -6.913  0.6506E-02  0.1651E+02
     -6.862  0.1154E+01  0.1657E+02
     -6.811  0.3750E+01  0.1676E+02
     -6.760  0.1660E+01  0.1685E+02
     -6.710  0.1437E+01  0.1692E+02
     -6.659  0.3756E+01  0.1711E+02
     -6.608  0.1927E+01  0.1721E+02
     -6.557  0.4877E+01  0.1746E+02
     -6.506  0.5002E+01  0.1771E+02
     -6.456  0.6521E+01  0.1804E+02
     -6.405  0.1638E+01  0.1812E+02
     -6.354  0.1946E+01  0.1822E+02
     -6.303  0.4629E+01  0.1846E+02
     -6.253  0.7073E+01  0.1882E+02
     -6.202  0.2764E+01  0.1896E+02
     -6.151  0.4904E+01  0.1921E+02
     -6.100  0.3300E+01  0.1937E+02
     -6.049  0.4889E-01  0.1938E+02
     -5.999  0.4987E+00  0.1940E+02
     -5.948  0.1932E+01  0.1950E+02
     -5.897  0.4325E+01  0.1972E+02
     -5.846  0.7150E+00  0.1976E+02
     -5.795  0.2599E+01  0.1989E+02
     -5.745  0.0000E+00  0.1989E+02
     -5.694  0.1041E-01  0.1989E+02
     -5.643  0.6550E+01  0.2022E+02
     -5.592  0.8449E+00  0.2026E+02
     -5.542  0.7990E+00  0.2031E+02
     -5.491  0.2765E-06  0.2031E+02
     -5.440  0.4060E+01  0.2051E+02
     -5.389  0.8631E+00  0.2056E+02
     -5.338  0.8545E-02  0.2056E+02
     -5.288  0.5692E+01  0.2085E+02
     -5.237  0.2135E+01  0.2095E+02
     -5.186  0.4620E+01  0.2119E+02
     -5.135  0.1491E+01  0.2126E+02
     -5.084  0.8466E+01  0.2169E+02
     -5.034  0.1034E+02  0.2222E+02
     -4.983  0.9102E+01  0.2268E+02
     -4.932  0.8594E+01  0.2312E+02
     -4.881  0.1280E+01  0.2318E+02
     -4.831  0.7545E+01  0.2357E+02
     -4.780  0.4793E+01  0.2381E+02
     -4.729  0.4301E+01  0.2403E+02
     -4.678  0.0000E+00  0.2403E+02
     -4.627  0.1281E-01  0.2403E+02
     -4.577  0.2412E+01  0.2415E+02
     -4.526  0.2498E+01  0.2428E+02
     -4.475  0.3970E+00  0.2430E+02
     -4.424  0.9447E+01  0.2478E+02
     -4.373  0.1640E+01  0.2486E+02
     -4.323  0.3280E+01  0.2503E+02
     -4.272  0.4069E-01  0.2503E+02
     -4.221  0.1603E+01  0.2511E+02
     -4.170  0.1300E+01  0.2518E+02
     -4.120  0.3416E+00  0.2519E+02
     -4.069  0.4943E+01  0.2545E+02
     -4.018  0.5142E+01  0.2571E+02
     -3.967  0.3204E+01  0.2587E+02
     -3.916  0.3118E+01  0.2603E+02
     -3.866  0.4535E+01  0.2626E+02
     -3.815  0.3669E+01  0.2644E+02
     -3.764  0.7827E+00  0.2648E+02
     -3.713  0.2499E+01  0.2661E+02
     -3.662  0.8181E+00  0.2665E+02
     -3.612  0.1089E+02  0.2721E+02
     -3.561  0.5374E+01  0.2748E+02
     -3.510  0.3431E+01  0.2765E+02
     -3.459  0.4917E+01  0.2790E+02
     -3.409  0.1426E+01  0.2797E+02
     -3.358  0.6325E+01  0.2830E+02
     -3.307  0.3824E+01  0.2849E+02
     -3.256  0.5547E+01  0.2877E+02
     -3.205  0.6668E+01  0.2911E+02
     -3.155  0.1745E+01  0.2920E+02
     -3.104  0.4501E+00  0.2922E+02
     -3.053  0.1942E-06  0.2922E+02
     -3.002  0.2481E+01  0.2935E+02
     -2.951  0.8048E+00  0.2939E+02
     -2.901  0.3278E+01  0.2956E+02
     -2.850  0.1640E+01  0.2964E+02
     -2.799  0.3057E-03  0.2964E+02
     -2.748  0.2296E-02  0.2964E+02
     -2.698  0.1640E+01  0.2972E+02
     -2.647  0.1640E+01  0.2981E+02
     -2.596  0.1592E+01  0.2989E+02
     -2.545  0.1866E+00  0.2990E+02
     -2.494  0.1504E+01  0.2997E+02
     -2.444  0.5466E+00  0.3000E+02
     -2.393  0.3060E-03  0.3000E+02
     -2.342  0.0000E+00  0.3000E+02
     -2.291  0.0000E+00  0.3000E+02
     -2.240  0.0000E+00  0.3000E+02
     -2.190  0.0000E+00  0.3000E+02
     -2.139  0.0000E+00  0.3000E+02
     -2.088  0.0000E+00  0.3000E+02
     -2.037  0.0000E+00  0.3000E+02
     -1.987  0.0000E+00  0.3000E+02
     -1.936  0.0000E+00  0.3000E+02
     -1.885  0.0000E+00  0.3000E+02
     -1.834  0.4509E-01  0.3000E+02
     -1.783  0.1721E+01  0.3009E+02
     -1.733  0.6951E+00  0.3012E+02
     -1.682  0.5644E-01  0.3013E+02
     -1.631  0.1584E+01  0.3021E+02
     -1.580  0.2838E+01  0.3035E+02
     -1.529  0.3661E+01  0.3054E+02
     -1.479  0.2801E+00  0.3055E+02
     -1.428  0.4707E+01  0.3079E+02
     -1.377  0.5354E-03  0.3079E+02
     -1.326  0.2043E-02  0.3079E+02
     -1.276  0.4728E+01  0.3103E+02
     -1.225  0.1930E+00  0.3104E+02
     -1.174  0.4792E+01  0.3129E+02
     -1.123  0.2950E+01  0.3143E+02
     -1.072  0.3283E+01  0.3160E+02
     -1.022  0.4604E+00  0.3162E+02
     -0.971  0.0000E+00  0.3162E+02
     -0.920  0.1749E-13  0.3162E+02
     -0.869  0.5296E+00  0.3165E+02
     -0.818  0.2742E+01  0.3179E+02
     -0.768  0.1011E-01  0.3179E+02
     -0.717  0.0000E+00  0.3179E+02
     -0.666  0.1337E-06  0.3179E+02
     -0.615  0.4441E+00  0.3181E+02
     -0.565  0.3111E+01  0.3197E+02
     -0.514  0.0000E+00  0.3197E+02
     -0.463  0.0000E+00  0.3197E+02
     -0.412  0.0000E+00  0.3197E+02
     -0.361  0.0000E+00  0.3197E+02
     -0.311  0.0000E+00  0.3197E+02
     -0.260  0.0000E+00  0.3197E+02
     -0.209  0.0000E+00  0.3197E+02
     -0.158  0.0000E+00  0.3197E+02
     -0.107  0.0000E+00  0.3197E+02
     -0.057  0.3769E-01  0.3197E+02
     -0.006  0.1056E+01  0.3203E+02
      0.045  0.0000E+00  0.3203E+02
      0.096  0.0000E+00  0.3203E+02
      0.146  0.0000E+00  0.3203E+02
      0.197  0.0000E+00  0.3203E+02
      0.248  0.0000E+00  0.3203E+02
      0.299  0.0000E+00  0.3203E+02
      0.350  0.0000E+00  0.3203E+02
      0.400  0.0000E+00  0.3203E+02
      0.451  0.0000E+00  0.3203E+02
      0.502  0.1601E+00  0.3204E+02
      0.553  0.3122E+01  0.3219E+02
      0.604  0.0000E+00  0.3219E+02
      0.654  0.0000E+00  0.3219E+02
      0.705  0.1551E-08  0.3219E+02
      0.756  0.1444E+01  0.3227E+02
      0.807  0.1968E+00  0.3228E+02
      0.857  0.0000E+00  0.3228E+02
      0.908  0.0000E+00  0.3228E+02
      0.959  0.0000E+00  0.3228E+02
      1.010  0.6517E-07  0.3228E+02
      1.061  0.5701E+01  0.3257E+02
      1.111  0.3014E+01  0.3272E+02
      1.162  0.2656E+01  0.3286E+02
      1.213  0.2299E+01  0.3297E+02
      1.264  0.2310E+01  0.3309E+02
      1.315  0.1132E+01  0.3315E+02
      1.365  0.1485E+01  0.3322E+02
      1.416  0.4496E+01  0.3345E+02
      1.467  0.4258E+00  0.3347E+02
      1.518  0.8255E-02  0.3347E+02
      1.568  0.4897E+01  0.3372E+02
      1.619  0.8549E-01  0.3373E+02
      1.670  0.3214E+01  0.3389E+02
      1.721  0.0000E+00  0.3389E+02
      1.772  0.1333E-01  0.3389E+02
      1.822  0.1901E+01  0.3399E+02
      1.873  0.2904E-01  0.3399E+02
      1.924  0.4404E+01  0.3421E+02
      1.975  0.2999E+01  0.3436E+02
      2.026  0.1090E+01  0.3442E+02
      2.076  0.1568E+01  0.3450E+02
      2.127  0.1575E+01  0.3458E+02
      2.178  0.2217E+01  0.3469E+02
      2.229  0.3589E+00  0.3471E+02
      2.279  0.2727E+01  0.3485E+02
      2.330  0.2175E+01  0.3496E+02
      2.381  0.4779E+00  0.3498E+02
      2.432  0.3971E+01  0.3518E+02
      2.483  0.2115E+01  0.3529E+02
      2.533  0.3528E+00  0.3531E+02
      2.584  0.3593E+01  0.3549E+02
      2.635  0.2618E+01  0.3562E+02
      2.686  0.4554E-15  0.3562E+02
      2.737  0.2994E+00  0.3564E+02
      2.787  0.1352E+01  0.3571E+02
      2.838  0.5023E+01  0.3596E+02
      2.889  0.3600E+01  0.3615E+02
      2.940  0.3673E+01  0.3633E+02
      2.990  0.4365E+00  0.3636E+02
      3.041  0.2845E+01  0.3650E+02
      3.092  0.8354E-05  0.3650E+02
      3.143  0.3267E+01  0.3667E+02
      3.194  0.2260E+00  0.3668E+02
      3.244  0.2971E+01  0.3683E+02
      3.295  0.2542E+00  0.3684E+02
      3.346  0.7961E+01  0.3725E+02
      3.397  0.3370E+01  0.3742E+02
      3.448  0.0000E+00  0.3742E+02
      3.498  0.3485E+00  0.3743E+02
      3.549  0.2933E+01  0.3758E+02
      3.600  0.0000E+00  0.3758E+02
      3.651  0.1721E+00  0.3759E+02
      3.701  0.3110E+01  0.3775E+02
      3.752  0.2121E+00  0.3776E+02
      3.803  0.4489E+01  0.3799E+02
      3.854  0.3503E+01  0.3817E+02
      3.905  0.3565E+00  0.3818E+02
      3.955  0.5290E+01  0.3845E+02
      4.006  0.9168E+00  0.3850E+02
      4.057  0.6020E+00  0.3853E+02
      4.108  0.1470E+01  0.3861E+02
      4.159  0.2850E+01  0.3875E+02
      4.209  0.9077E-08  0.3875E+02
      4.260  0.2992E+01  0.3890E+02
      4.311  0.1927E+01  0.3900E+02
      4.362  0.4087E+00  0.3902E+02
      4.412  0.1851E+01  0.3911E+02
      4.463  0.4315E+01  0.3933E+02
      4.514  0.1680E+01  0.3942E+02
      4.565  0.9286E+00  0.3947E+02
      4.616  0.4220E+01  0.3968E+02
      4.666  0.1083E+00  0.3969E+02
      4.717  0.2578E+01  0.3982E+02
      4.768  0.5397E+01  0.4009E+02
      4.819  0.4354E+01  0.4031E+02
      4.870  0.2363E+01  0.4043E+02
      4.920  0.3250E+01  0.4060E+02
      4.971  0.1893E-02  0.4060E+02
      5.022  0.2221E+01  0.4071E+02
      5.073  0.2699E+01  0.4085E+02
      5.123  0.1353E+01  0.4092E+02
      5.174  0.6540E+01  0.4125E+02
      5.225  0.6871E+01  0.4160E+02
      5.276  0.3330E-02  0.4160E+02
      5.327  0.1610E+01  0.4168E+02
      5.377  0.2929E+01  0.4183E+02
      5.428  0.3833E+00  0.4185E+02
      5.479  0.7791E-02  0.4185E+02
      5.530  0.6551E+01  0.4218E+02
      5.581  0.1450E+01  0.4225E+02
      5.631  0.5803E+01  0.4255E+02
      5.682  0.3694E+01  0.4274E+02
      5.733  0.1758E+01  0.4283E+02
      5.784  0.3035E+01  0.4298E+02
      5.834  0.1298E+01  0.4305E+02
      5.885  0.1733E+01  0.4313E+02
      5.936  0.6683E+01  0.4347E+02
      5.987  0.4731E+01  0.4371E+02
      6.038  0.2893E+01  0.4386E+02
      6.088  0.3088E+01  0.4402E+02
      6.139  0.4411E+01  0.4424E+02
      6.190  0.3678E+01  0.4443E+02
      6.241  0.3265E+00  0.4444E+02
      6.292  0.6291E+01  0.4476E+02
      6.342  0.9102E+00  0.4481E+02
      6.393  0.6180E+01  0.4512E+02
      6.444  0.2933E+00  0.4514E+02
      6.495  0.3382E+01  0.4531E+02
      6.545  0.1177E+02  0.4591E+02
      6.596  0.9973E+01  0.4641E+02
      6.647  0.1667E+01  0.4650E+02
      6.698  0.8172E+00  0.4654E+02
      6.749  0.2824E+01  0.4668E+02
      6.799  0.1296E+02  0.4734E+02
      6.850  0.1461E+01  0.4742E+02
      6.901  0.2079E+01  0.4752E+02
      6.952  0.9198E+01  0.4799E+02
      7.003  0.3714E+01  0.4818E+02
      7.053  0.6468E+00  0.4821E+02
      7.104  0.1095E+02  0.4877E+02
      7.155  0.5682E+01  0.4906E+02
      7.206  0.4870E+01  0.4930E+02
      7.256  0.6051E+01  0.4961E+02
      7.307  0.3989E+01  0.4981E+02
      7.358  0.3969E+01  0.5001E+02
      7.409  0.2342E+01  0.5013E+02
      7.460  0.5626E+01  0.5042E+02
      7.510  0.1490E+02  0.5118E+02
      7.561  0.6774E+01  0.5152E+02
      7.612  0.8712E+01  0.5196E+02
      7.663  0.2154E+01  0.5207E+02
      7.714  0.1611E+01  0.5215E+02
      7.764  0.1639E+01  0.5224E+02
      7.815  0.6214E+01  0.5255E+02
      7.866  0.4231E+01  0.5277E+02
      7.917  0.3375E+01  0.5294E+02
      7.967  0.3603E+01  0.5312E+02
      8.018  0.1225E+02  0.5374E+02
      8.069  0.7419E+01  0.5412E+02
      8.120  0.5515E+01  0.5440E+02
      8.171  0.8272E+01  0.5482E+02
      8.221  0.1054E+02  0.5536E+02
      8.272  0.8855E+01  0.5580E+02
      8.323  0.1116E+00  0.5581E+02
      8.374  0.8677E+01  0.5625E+02
      8.425  0.9665E+01  0.5674E+02
      8.475  0.3710E+01  0.5693E+02
      8.526  0.3213E+01  0.5709E+02
      8.577  0.7475E+01  0.5747E+02
      8.628  0.8136E+01  0.5789E+02
      8.678  0.1280E+02  0.5854E+02
      8.729  0.1017E+02  0.5905E+02
      8.780  0.7122E+01  0.5941E+02
      8.831  0.1535E+01  0.5949E+02
      8.882  0.5065E+01  0.5975E+02
      8.932  0.2966E+01  0.5990E+02
      8.983  0.3608E+01  0.6008E+02
      9.034  0.6176E+01  0.6040E+02
      9.085  0.7662E+01  0.6079E+02
      9.136  0.4869E+01  0.6103E+02
      9.186  0.8867E+01  0.6148E+02
      9.237  0.7409E+01  0.6186E+02
      9.288  0.8167E+01  0.6228E+02
      9.339  0.4195E+01  0.6249E+02
      9.389  0.5784E+01  0.6278E+02
      9.440  0.7351E+01  0.6316E+02
      9.491  0.1219E+02  0.6377E+02
      9.542  0.1040E+02  0.6430E+02
      9.593  0.1432E+01  0.6437E+02
      9.643  0.1578E-01  0.6438E+02
      9.694  0.6828E+01  0.6472E+02
      9.745  0.1219E+02  0.6534E+02
      9.796  0.7474E+01  0.6572E+02
      9.847  0.5383E+01  0.6599E+02
      9.897  0.2757E+01  0.6613E+02
      9.948  0.6639E+01  0.6647E+02
      9.999  0.4645E+01  0.6671E+02
     10.050  0.8163E+00  0.6675E+02
     10.100  0.3302E+01  0.6692E+02
     10.151  0.4475E+01  0.6714E+02
     10.202  0.2112E+01  0.6725E+02
     10.253  0.6270E+01  0.6757E+02
     10.304  0.6829E+01  0.6792E+02
     10.354  0.2324E+01  0.6803E+02
     10.405  0.7291E+01  0.6840E+02
     10.456  0.5561E+01  0.6869E+02
     10.507  0.8059E+01  0.6910E+02
     10.558  0.3188E+01  0.6926E+02
     10.608  0.9353E+01  0.6973E+02
     10.659  0.2205E+01  0.6985E+02
     10.710  0.5833E+00  0.6987E+02
     10.761  0.6157E+01  0.7019E+02
     10.811  0.3794E+01  0.7038E+02
     10.862  0.4269E+01  0.7060E+02
     10.913  0.4697E+01  0.7084E+02
     10.964  0.3507E+01  0.7101E+02
     11.015  0.6575E+01  0.7135E+02
     11.065  0.6935E+01  0.7170E+02
     11.116  0.6997E+01  0.7206E+02
     11.167  0.4926E+01  0.7231E+02
     11.218  0.2937E-01  0.7231E+02
     11.269  0.1612E+01  0.7239E+02
     11.319  0.5129E+01  0.7265E+02
     11.370  0.3616E+01  0.7283E+02
     11.421  0.6773E+01  0.7318E+02
     11.472  0.3434E+00  0.7319E+02
     11.522  0.4147E-01  0.7320E+02
     11.573  0.3838E+01  0.7339E+02
     11.624  0.4325E+01  0.7361E+02
     11.675  0.1406E+01  0.7368E+02
     11.726  0.8987E+01  0.7414E+02
     11.776  0.4721E+01  0.7438E+02
     11.827  0.2228E+01  0.7449E+02
     11.878  0.9235E+01  0.7496E+02
     11.929  0.8127E+01  0.7537E+02
     11.980  0.8559E+01  0.7581E+02
     12.030  0.3883E+01  0.7601E+02
     12.081  0.5354E+01  0.7628E+02
     12.132  0.1437E+02  0.7701E+02
     12.183  0.1654E+02  0.7785E+02
     12.233  0.3559E+01  0.7803E+02
     12.284  0.3896E+01  0.7823E+02
     12.335  0.6524E+01  0.7856E+02
     12.386  0.8963E+01  0.7901E+02
     12.437  0.5230E+01  0.7928E+02
     12.487  0.2757E-01  0.7928E+02
     12.538  0.3688E+01  0.7947E+02
     12.589  0.1142E+02  0.8005E+02
     12.640  0.1491E+01  0.8012E+02
     12.691  0.1130E+02  0.8070E+02
     12.741  0.4891E+01  0.8094E+02
     12.792  0.1640E+01  0.8103E+02
     12.843  0.7664E+01  0.8142E+02
     12.894  0.1365E+01  0.8149E+02
     12.944  0.8059E+01  0.8190E+02
     12.995  0.7432E+01  0.8227E+02
     13.046  0.9272E+01  0.8274E+02
     13.097  0.8730E+01  0.8319E+02
     13.148  0.2544E+01  0.8332E+02
     13.198  0.5331E+01  0.8359E+02
     13.249  0.4504E+01  0.8382E+02
     13.300  0.9558E+01  0.8430E+02
     13.351  0.6920E+01  0.8465E+02
     13.402  0.1450E+01  0.8473E+02
     13.452  0.3475E+01  0.8490E+02
     13.503  0.4955E+01  0.8515E+02
     13.554  0.2424E+01  0.8528E+02
     13.605  0.8005E+01  0.8568E+02
     13.655  0.3625E+01  0.8587E+02
     13.706  0.7910E+01  0.8627E+02
     13.757  0.4934E+01  0.8652E+02
     13.808  0.7322E+01  0.8689E+02
     13.859  0.5781E+01  0.8719E+02
     13.909  0.1150E+02  0.8777E+02
     13.960  0.7451E+01  0.8815E+02
     14.011  0.6984E+01  0.8850E+02
     14.062  0.6641E+01  0.8884E+02
     14.113  0.7777E+01  0.8924E+02
     14.163  0.2182E+01  0.8935E+02
     14.214  0.1104E+02  0.8991E+02
     14.265  0.5567E+01  0.9019E+02
     14.316  0.1214E+02  0.9081E+02
     14.366  0.1167E+02  0.9140E+02
     14.417  0.5026E+01  0.9165E+02
     14.468  0.4296E+01  0.9187E+02
     14.519  0.1159E+02  0.9246E+02
     14.570  0.2149E+01  0.9257E+02
     14.620  0.1756E+01  0.9266E+02
     14.671  0.7432E+01  0.9304E+02
     14.722  0.6259E+01  0.9335E+02
     14.773  0.6864E+00  0.9339E+02
     14.824  0.2037E-02  0.9339E+02
     14.874  0.5190E+01  0.9365E+02
     14.925  0.9016E+01  0.9411E+02
     14.976  0.7121E+01  0.9447E+02
     15.027  0.6427E+01  0.9480E+02
     15.077  0.1063E+02  0.9534E+02
     15.128  0.1818E+01  0.9543E+02
     15.179  0.4889E+01  0.9568E+02
     15.230  0.4689E+01  0.9592E+02
     15.281  0.3910E+01  0.9612E+02
     15.331  0.4721E+01  0.9636E+02
     15.382  0.2567E+01  0.9649E+02
     15.433  0.6849E+01  0.9683E+02
     15.484  0.1091E+01  0.9689E+02
     15.535  0.4752E+01  0.9713E+02
     15.585  0.1811E+01  0.9722E+02
     15.636  0.2906E+01  0.9737E+02
     15.687  0.5592E+01  0.9765E+02
     15.738  0.8377E+01  0.9808E+02
     15.788  0.5938E+01  0.9838E+02
     15.839  0.2705E+01  0.9852E+02
     15.890  0.5933E+01  0.9882E+02
     15.941  0.3073E+01  0.9898E+02
     15.992  0.4030E+01  0.9918E+02
     16.042  0.6394E+01  0.9950E+02
     16.093  0.6821E+01  0.9985E+02
     16.144  0.9389E+01  0.1003E+03
     16.195  0.6495E+01  0.1007E+03
     16.246  0.2111E+01  0.1008E+03
     16.296  0.4715E+01  0.1010E+03
     16.347  0.1857E+01  0.1011E+03
     16.398  0.5703E+01  0.1014E+03
     16.449  0.4138E+01  0.1016E+03
     16.499  0.6910E+01  0.1019E+03
     16.550  0.7610E+01  0.1023E+03
     16.601  0.1180E+02  0.1029E+03
     16.652  0.6312E+01  0.1033E+03
     16.703  0.9367E+01  0.1037E+03
     16.753  0.3488E+01  0.1039E+03
     16.804  0.7178E+01  0.1043E+03
     16.855  0.6166E+01  0.1046E+03
     16.906  0.9040E+01  0.1050E+03
     16.957  0.2652E+01  0.1052E+03
     17.007  0.6457E+01  0.1055E+03
     17.058  0.7452E+01  0.1059E+03
     17.109  0.8098E+01  0.1063E+03
     17.160  0.1127E+02  0.1069E+03
     17.210  0.7165E+01  0.1072E+03
     17.261  0.1443E+02  0.1080E+03
     17.312  0.2058E+01  0.1081E+03
     17.363  0.9007E+01  0.1085E+03
     17.414  0.1910E+01  0.1086E+03
     17.464  0.9549E+01  0.1091E+03
     17.515  0.1204E+02  0.1097E+03
     17.566  0.9112E+01  0.1102E+03
     17.617  0.9417E+01  0.1107E+03
     17.668  0.1989E+01  0.1108E+03
     17.718  0.4110E+01  0.1110E+03
     17.769  0.4900E+01  0.1112E+03
     17.820  0.4753E+01  0.1115E+03