 vasp.5.4.4.18Apr17-6-g9f103f2a35 (build Mar 30 2023 15:39:25) complex          
  
 executed on             LinuxIFC date 2023.06.28  01:57:11
 running on   12 total cores
 distrk:  each k-point on   12 cores,    1 groups
 distr:  one band on NCORES_PER_BAND=   1 cores,   12 groups


--------------------------------------------------------------------------------------------------------


 INCAR:
 POTCAR:    PAW_PBE B 06Sep2000                   
 POTCAR:    PAW_PBE C 08Apr2002                   

 ----------------------------------------------------------------------------- 
|                                                                             |
|           W    W    AA    RRRRR   N    N  II  N    N   GGGG   !!!           |
|           W    W   A  A   R    R  NN   N  II  NN   N  G    G  !!!           |
|           W    W  A    A  R    R  N N  N  II  N N  N  G       !!!           |
|           W WW W  AAAAAA  RRRRR   N  N N  II  N  N N  G  GGG   !            |
|           WW  WW  A    A  R   R   N   NN  II  N   NN  G    G                |
|           W    W  A    A  R    R  N    N  II  N    N   GGGG   !!!           |
|                                                                             |
|      For optimal performance we recommend to set                            |
|        NCORE= 4 - approx SQRT( number of cores)                             |
|      NCORE specifies how many cores store one orbital (NPAR=cpu/NCORE).     |
|      This setting can  greatly improve the performance of VASP for DFT.     |
|      The default,   NCORE=1            might be grossly inefficient         |
|      on modern multi-core architectures or massively parallel machines.     |
|      Do your own testing !!!!                                               |
|      Unfortunately you need to use the default for GW and RPA calculations. |
|      (for HF NCORE is supported but not extensively tested yet)             |
|                                                                             |
 ----------------------------------------------------------------------------- 

 POTCAR:    PAW_PBE B 06Sep2000                   
   SHA256 =  a32ced30f5ae56fd4d10b4325ff17eb3e4e38ee0f4288bc219fb012fddfa6e97 B/
   COPYR  = (c) Copyright 06Sep2000 Georg Kresse                                
   COPYR  = This file is part of the software VASP. Any use, copying, and all ot
   COPYR  = If you do not have a valid VASP license, you may not use, copy or di
   VRHFIN =B: s2p1                                                              
   LEXCH  = PE                                                                  
   EATOM  =    71.1703 eV,    5.2309 Ry                                         
                                                                                
   TITEL  = PAW_PBE B 06Sep2000                                                 
   LULTRA =        F    use ultrasoft PP ?                                      
   IUNSCR =        1    unscreen: 0-lin 1-nonlin 2-no                           
   RPACOR =    1.200    partial core radius                                     
   POMASS =   10.811; ZVAL   =    3.000    mass and valenz                      
   RCORE  =    1.700    outmost cutoff radius                                   
   RWIGS  =    1.710; RWIGS  =    0.905    wigner-seitz radius (au A)           
   ENMAX  =  318.614; ENMIN  =  238.960 eV                                      
   ICORE  =        2    local potential                                         
   LCOR   =        T    correct aug charges                                     
   LPAW   =        T    paw PP                                                  
   EAUG   =  535.514                                                            
   DEXC   =    0.000                                                            
   RMAX   =    1.732    core radius for proj-oper                               
   RAUG   =    1.300    factor for augmentation sphere                          
   RDEP   =    1.757    radius for radial grids                                 
   RDEPT  =    1.436    core radius for aug-charge                              
                                                                                
   Atomic configuration                                                         
    4 entries                                                                   
     n  l   j            E        occ.                                          
     1  0  0.50      -180.5896   2.0000                                         
     2  0  0.50        -9.4431   2.0000                                         
     2  1  0.50        -3.6068   1.0000                                         
     3  2  1.50        -4.0817   0.0000                                         
   Description                                                                  
     l       E           TYP  RCUT    TYP  RCUT                                 
     0     -9.4430752     23  1.500                                             
     0      0.8675899     23  1.500                                             
     1     -3.6067955     23  1.700                                             
     1      6.1086146     23  1.700                                             
     2     -4.0817478      7  1.700                                             
  local pseudopotential read in
  partial core-charges read in
  partial kinetic energy density read in
  atomic valenz-charges read in
  non local Contribution for L=           0  read in
    real space projection operators read in
  non local Contribution for L=           0  read in
    real space projection operators read in
  non local Contribution for L=           1  read in
    real space projection operators read in
  non local Contribution for L=           1  read in
    real space projection operators read in
    PAW grid and wavefunctions read in
 
   number of l-projection  operators is LMAX  =           4
   number of lm-projection operators is LMMAX =           8
 
 POTCAR:    PAW_PBE C 08Apr2002                   
   SHA256 =  253f7b50bb8d59471dbedb8285d89021f4a42ed1a2c5d38a03a736e69125dd95 C/
   COPYR  = (c) Copyright 08Apr2002 Georg Kresse                                
   COPYR  = This file is part of the software VASP. Any use, copying, and all ot
   COPYR  = If you do not have a valid VASP license, you may not use, copy or di
   VRHFIN =C: s2p2                                                              
   LEXCH  = PE                                                                  
   EATOM  =   147.1560 eV,   10.8157 Ry                                         
                                                                                
   TITEL  = PAW_PBE C 08Apr2002                                                 
   LULTRA =        F    use ultrasoft PP ?                                      
   IUNSCR =        1    unscreen: 0-lin 1-nonlin 2-no                           
   RPACOR =    1.200    partial core radius                                     
   POMASS =   12.011; ZVAL   =    4.000    mass and valenz                      
   RCORE  =    1.500    outmost cutoff radius                                   
   RWIGS  =    1.630; RWIGS  =    0.863    wigner-seitz radius (au A)           
   ENMAX  =  400.000; ENMIN  =  300.000 eV                                      
   ICORE  =        2    local potential                                         
   LCOR   =        T    correct aug charges                                     
   LPAW   =        T    paw PP                                                  
   EAUG   =  644.873                                                            
   DEXC   =    0.000                                                            
   RMAX   =    1.529    core radius for proj-oper                               
   RAUG   =    1.300    factor for augmentation sphere                          
   RDEP   =    1.501    radius for radial grids                                 
   RDEPT  =    1.300    core radius for aug-charge                              
                                                                                
   Atomic configuration                                                         
    4 entries                                                                   
     n  l   j            E        occ.                                          
     1  0  0.50      -273.3789   2.0000                                         
     2  0  0.50       -13.7508   2.0000                                         
     2  1  0.50        -5.2854   2.0000                                         
     3  2  1.50        -5.4423   0.0000                                         
   Description                                                                  
     l       E           TYP  RCUT    TYP  RCUT                                 
     0    -13.7508458     23  1.200                                             
     0     -8.2022199     23  1.200                                             
     1     -5.2854383     23  1.500                                             
     1     34.0145650     23  1.500                                             
     2     -5.4423304      7  1.500                                             
  local pseudopotential read in
  partial core-charges read in
  partial kinetic energy density read in
  atomic valenz-charges read in
  non local Contribution for L=           0  read in
    real space projection operators read in
  non local Contribution for L=           0  read in
    real space projection operators read in
  non local Contribution for L=           1  read in
    real space projection operators read in
  non local Contribution for L=           1  read in
    real space projection operators read in
    PAW grid and wavefunctions read in
 
   number of l-projection  operators is LMAX  =           4
   number of lm-projection operators is LMMAX =           8
 
  PAW_PBE B 06Sep2000                   :
 energy of atom  1       EATOM=  -71.1703
 kinetic energy error for atom=    0.0015 (will be added to EATOM!!)
  PAW_PBE C 08Apr2002                   :
 energy of atom  2       EATOM= -147.1560
 kinetic energy error for atom=    0.0116 (will be added to EATOM!!)
 
 
 POSCAR: BC3 with lattice parameter 5.174Ang, len
  positions in direct lattice
  velocities in cartesian coordinates
 exchange correlation table for  LEXCH =        8
   RHO(1)=    0.500       N(1)  =     2000
   RHO(2)=  100.500       N(2)  =     4000
 


--------------------------------------------------------------------------------------------------------


 ion  position               nearest neighbor table
   1  0.333  0.667  0.250-   3 1.57   7 1.57   5 1.57
   2  0.667  0.333  0.250-   4 1.57   8 1.57   6 1.57
   3  0.159  0.317  0.250-   6 1.42   4 1.42   1 1.57
   4  0.317  0.159  0.250-   5 1.42   3 1.42   2 1.57
   5  0.159  0.841  0.250-   4 1.42   8 1.42   1 1.57
   6  0.841  0.159  0.250-   3 1.42   7 1.42   2 1.57
   7  0.683  0.841  0.250-   6 1.42   8 1.42   1 1.57
   8  0.841  0.683  0.250-   5 1.42   7 1.42   2 1.57
 
  LATTYP: Found a hexagonal cell.
 ALAT       =     5.1740377035
 C/A-ratio  =     1.6467258045
  
  Lattice vectors:
  
 A1 = (   4.4808484340,   2.5870188517,   0.0000000000)
 A2 = (  -4.4808484340,   2.5870188517,   0.0000000000)
 A3 = (   0.0000000000,   0.0000000000,   8.5202213998)


Analysis of symmetry for initial positions (statically):
=====================================================================
 Subroutine PRICEL returns:
 Original cell was already a primitive cell.
 

 Routine SETGRP: Setting up the symmetry group for a 
 hexagonal supercell.


 Subroutine GETGRP returns: Found 24 space group operations
 (whereof 12 operations were pure point group operations)
 out of a pool of 24 trial point group operations.


The static configuration has the point symmetry C_6v.
 The point group associated with its full space group is D_6h.


Analysis of symmetry for dynamics (positions and initial velocities):
=====================================================================
 Subroutine PRICEL returns:
 Original cell was already a primitive cell.
 

 Routine SETGRP: Setting up the symmetry group for a 
 hexagonal supercell.


 Subroutine GETGRP returns: Found 24 space group operations
 (whereof 12 operations were pure point group operations)
 out of a pool of 24 trial point group operations.


The dynamic configuration has the point symmetry C_6v.
 The point group associated with its full space group is D_6h.


 Subroutine INISYM returns: Found 24 space group operations
 (whereof 12 operations are pure point group operations),
 and found     1 'primitive' translations



 irot  :   1
 --------------------------------------------------------------------
 isymop:   1   0   0
           0   1   0
           0   0   1

 gtrans:     0.0000000     0.0000000     0.0000000

 ptrans:     0.0000000     0.0000000     0.0000000
 
 rotmap:
 (   1->   1)  (   2->   2)  (   3->   3)  (   4->   4)  (   5->   5) 
 (   6->   6)  (   7->   7)  (   8->   8) 


 irot  :   2
 --------------------------------------------------------------------
 isymop:   1  -1   0
           1   0   0
           0   0   1

 gtrans:     0.0000000     0.0000000     0.0000000

 ptrans:     0.0000000     0.0000000     0.0000000
 
 rotmap:
 (   1->   2)  (   2->   1)  (   3->   6)  (   4->   3)  (   5->   4) 
 (   6->   7)  (   7->   8)  (   8->   5) 


 irot  :   3
 --------------------------------------------------------------------
 isymop:   0  -1   0
           1  -1   0
           0   0   1

 gtrans:     0.0000000     0.0000000     0.0000000

 ptrans:     0.0000000     0.0000000     0.0000000
 
 rotmap:
 (   1->   1)  (   2->   2)  (   3->   7)  (   4->   6)  (   5->   3) 
 (   6->   8)  (   7->   5)  (   8->   4) 


 irot  :   4
 --------------------------------------------------------------------
 isymop:  -1   0   0
           0  -1   0
           0   0   1

 gtrans:     0.0000000     0.0000000     0.0000000

 ptrans:     0.0000000     0.0000000     0.0000000
 
 rotmap:
 (   1->   2)  (   2->   1)  (   3->   8)  (   4->   7)  (   5->   6) 
 (   6->   5)  (   7->   4)  (   8->   3) 


 irot  :   5
 --------------------------------------------------------------------
 isymop:  -1   1   0
          -1   0   0
           0   0   1

 gtrans:     0.0000000     0.0000000     0.0000000

 ptrans:     0.0000000     0.0000000     0.0000000
 
 rotmap:
 (   1->   1)  (   2->   2)  (   3->   5)  (   4->   8)  (   5->   7) 
 (   6->   4)  (   7->   3)  (   8->   6) 


 irot  :   6
 --------------------------------------------------------------------
 isymop:   0   1   0
          -1   1   0
           0   0   1

 gtrans:     0.0000000     0.0000000     0.0000000

 ptrans:     0.0000000     0.0000000     0.0000000
 
 rotmap:
 (   1->   2)  (   2->   1)  (   3->   4)  (   4->   5)  (   5->   8) 
 (   6->   3)  (   7->   6)  (   8->   7) 


 irot  :   7
 --------------------------------------------------------------------
 isymop:  -1   1   0
           0   1   0
           0   0   1

 gtrans:     0.0000000     0.0000000     0.0000000

 ptrans:     0.0000000     0.0000000     0.0000000
 
 rotmap:
 (   1->   1)  (   2->   2)  (   3->   3)  (   4->   6)  (   5->   7) 
 (   6->   4)  (   7->   5)  (   8->   8) 


 irot  :   8
 --------------------------------------------------------------------
 isymop:   0   1   0
           1   0   0
           0   0   1

 gtrans:     0.0000000     0.0000000     0.0000000

 ptrans:     0.0000000     0.0000000     0.0000000
 
 rotmap:
 (   1->   2)  (   2->   1)  (   3->   4)  (   4->   3)  (   5->   6) 
 (   6->   5)  (   7->   8)  (   8->   7) 


 irot  :   9
 --------------------------------------------------------------------
 isymop:   1   0   0
           1  -1   0
           0   0   1

 gtrans:     0.0000000     0.0000000     0.0000000

 ptrans:     0.0000000     0.0000000     0.0000000
 
 rotmap:
 (   1->   1)  (   2->   2)  (   3->   5)  (   4->   4)  (   5->   3) 
 (   6->   8)  (   7->   7)  (   8->   6) 


 irot  :  10
 --------------------------------------------------------------------
 isymop:   1  -1   0
           0  -1   0
           0   0   1

 gtrans:     0.0000000     0.0000000     0.0000000

 ptrans:     0.0000000     0.0000000     0.0000000
 
 rotmap:
 (   1->   2)  (   2->   1)  (   3->   8)  (   4->   5)  (   5->   4) 
 (   6->   7)  (   7->   6)  (   8->   3) 


 irot  :  11
 --------------------------------------------------------------------
 isymop:   0  -1   0
          -1   0   0
           0   0   1

 gtrans:     0.0000000     0.0000000     0.0000000

 ptrans:     0.0000000     0.0000000     0.0000000
 
 rotmap:
 (   1->   1)  (   2->   2)  (   3->   7)  (   4->   8)  (   5->   5) 
 (   6->   6)  (   7->   3)  (   8->   4) 


 irot  :  12
 --------------------------------------------------------------------
 isymop:  -1   0   0
          -1   1   0
           0   0   1

 gtrans:     0.0000000     0.0000000     0.0000000

 ptrans:     0.0000000     0.0000000     0.0000000
 
 rotmap:
 (   1->   2)  (   2->   1)  (   3->   6)  (   4->   7)  (   5->   8) 
 (   6->   3)  (   7->   4)  (   8->   5) 


 irot  :  13
 --------------------------------------------------------------------
 isymop:  -1   0   0
           0  -1   0
           0   0  -1

 gtrans:     0.0000000     0.0000000     0.5000000

 ptrans:     0.0000000     0.0000000     0.0000000
 
 rotmap:
 (   1->   2)  (   2->   1)  (   3->   8)  (   4->   7)  (   5->   6) 
 (   6->   5)  (   7->   4)  (   8->   3) 


 irot  :  14
 --------------------------------------------------------------------
 isymop:  -1   1   0
          -1   0   0
           0   0  -1

 gtrans:     0.0000000     0.0000000     0.5000000

 ptrans:     0.0000000     0.0000000     0.0000000
 
 rotmap:
 (   1->   1)  (   2->   2)  (   3->   5)  (   4->   8)  (   5->   7) 
 (   6->   4)  (   7->   3)  (   8->   6) 


 irot  :  15
 --------------------------------------------------------------------
 isymop:   0   1   0
          -1   1   0
           0   0  -1

 gtrans:     0.0000000     0.0000000     0.5000000

 ptrans:     0.0000000     0.0000000     0.0000000
 
 rotmap:
 (   1->   2)  (   2->   1)  (   3->   4)  (   4->   5)  (   5->   8) 
 (   6->   3)  (   7->   6)  (   8->   7) 


 irot  :  16
 --------------------------------------------------------------------
 isymop:   1   0   0
           0   1   0
           0   0  -1

 gtrans:     0.0000000     0.0000000     0.5000000

 ptrans:     0.0000000     0.0000000     0.0000000
 
 rotmap:
 (   1->   1)  (   2->   2)  (   3->   3)  (   4->   4)  (   5->   5) 
 (   6->   6)  (   7->   7)  (   8->   8) 


 irot  :  17
 --------------------------------------------------------------------
 isymop:   1  -1   0
           1   0   0
           0   0  -1

 gtrans:     0.0000000     0.0000000     0.5000000

 ptrans:     0.0000000     0.0000000     0.0000000
 
 rotmap:
 (   1->   2)  (   2->   1)  (   3->   6)  (   4->   3)  (   5->   4) 
 (   6->   7)  (   7->   8)  (   8->   5) 


 irot  :  18
 --------------------------------------------------------------------
 isymop:   0  -1   0
           1  -1   0
           0   0  -1

 gtrans:     0.0000000     0.0000000     0.5000000

 ptrans:     0.0000000     0.0000000     0.0000000
 
 rotmap:
 (   1->   1)  (   2->   2)  (   3->   7)  (   4->   6)  (   5->   3) 
 (   6->   8)  (   7->   5)  (   8->   4) 


 irot  :  19
 --------------------------------------------------------------------
 isymop:   1  -1   0
           0  -1   0
           0   0  -1

 gtrans:     0.0000000     0.0000000     0.5000000

 ptrans:     0.0000000     0.0000000     0.0000000
 
 rotmap:
 (   1->   2)  (   2->   1)  (   3->   8)  (   4->   5)  (   5->   4) 
 (   6->   7)  (   7->   6)  (   8->   3) 


 irot  :  20
 --------------------------------------------------------------------
 isymop:   0  -1   0
          -1   0   0
           0   0  -1

 gtrans:     0.0000000     0.0000000     0.5000000

 ptrans:     0.0000000     0.0000000     0.0000000
 
 rotmap:
 (   1->   1)  (   2->   2)  (   3->   7)  (   4->   8)  (   5->   5) 
 (   6->   6)  (   7->   3)  (   8->   4) 


 irot  :  21
 --------------------------------------------------------------------
 isymop:  -1   0   0
          -1   1   0
           0   0  -1

 gtrans:     0.0000000     0.0000000     0.5000000

 ptrans:     0.0000000     0.0000000     0.0000000
 
 rotmap:
 (   1->   2)  (   2->   1)  (   3->   6)  (   4->   7)  (   5->   8) 
 (   6->   3)  (   7->   4)  (   8->   5) 


 irot  :  22
 --------------------------------------------------------------------
 isymop:  -1   1   0
           0   1   0
           0   0  -1

 gtrans:     0.0000000     0.0000000     0.5000000

 ptrans:     0.0000000     0.0000000     0.0000000
 
 rotmap:
 (   1->   1)  (   2->   2)  (   3->   3)  (   4->   6)  (   5->   7) 
 (   6->   4)  (   7->   5)  (   8->   8) 


 irot  :  23
 --------------------------------------------------------------------
 isymop:   0   1   0
           1   0   0
           0   0  -1

 gtrans:     0.0000000     0.0000000     0.5000000

 ptrans:     0.0000000     0.0000000     0.0000000
 
 rotmap:
 (   1->   2)  (   2->   1)  (   3->   4)  (   4->   3)  (   5->   6) 
 (   6->   5)  (   7->   8)  (   8->   7) 


 irot  :  24
 --------------------------------------------------------------------
 isymop:   1   0   0
           1  -1   0
           0   0  -1

 gtrans:     0.0000000     0.0000000     0.5000000

 ptrans:     0.0000000     0.0000000     0.0000000
 
 rotmap:
 (   1->   1)  (   2->   2)  (   3->   5)  (   4->   4)  (   5->   3) 
 (   6->   8)  (   7->   7)  (   8->   6) 
 
 
 KPOINTS: K-points for BC3                        

Automatic generation of k-mesh.
Space group operators:
 irot       det(A)        alpha          n_x          n_y          n_z        tau_x        tau_y        tau_z
    1     1.000000     0.000000     1.000000     0.000000     0.000000     0.000000     0.000000     0.000000
    2     1.000000    60.000000     0.000000     0.000000    -1.000000     0.000000     0.000000     0.000000
    3     1.000000   120.000000     0.000000     0.000000    -1.000000     0.000000     0.000000     0.000000
    4     1.000000   180.000000     0.000000     0.000000     1.000000     0.000000     0.000000     0.000000
    5     1.000000   120.000000     0.000000     0.000000     1.000000     0.000000     0.000000     0.000000
    6     1.000000    60.000000     0.000000     0.000000     1.000000     0.000000     0.000000     0.000000
    7    -1.000000   180.000000     0.866025     0.500000     0.000000     0.000000     0.000000     0.000000
    8    -1.000000   180.000000     1.000000     0.000000     0.000000     0.000000     0.000000     0.000000
    9    -1.000000   180.000000     0.866025    -0.500000     0.000000     0.000000     0.000000     0.000000
   10    -1.000000   180.000000     0.500000    -0.866025     0.000000     0.000000     0.000000     0.000000
   11    -1.000000   180.000000     0.000000     1.000000     0.000000     0.000000     0.000000     0.000000
   12    -1.000000   180.000000    -0.500000    -0.866025     0.000000     0.000000     0.000000     0.000000
   13    -1.000000     0.000000     1.000000     0.000000     0.000000     0.000000     0.000000     0.500000
   14    -1.000000    60.000000     0.000000     0.000000    -1.000000     0.000000     0.000000     0.500000
   15    -1.000000   120.000000     0.000000     0.000000    -1.000000     0.000000     0.000000     0.500000
   16    -1.000000   180.000000     0.000000     0.000000     1.000000     0.000000     0.000000     0.500000
   17    -1.000000   120.000000     0.000000     0.000000     1.000000     0.000000     0.000000     0.500000
   18    -1.000000    60.000000     0.000000     0.000000     1.000000     0.000000     0.000000     0.500000
   19     1.000000   180.000000     0.866025     0.500000     0.000000     0.000000     0.000000     0.500000
   20     1.000000   180.000000     1.000000     0.000000     0.000000     0.000000     0.000000     0.500000
   21     1.000000   180.000000     0.866025    -0.500000     0.000000     0.000000     0.000000     0.500000
   22     1.000000   180.000000     0.500000    -0.866025     0.000000     0.000000     0.000000     0.500000
   23     1.000000   180.000000     0.000000     1.000000     0.000000     0.000000     0.000000     0.500000
   24     1.000000   180.000000    -0.500000    -0.866025     0.000000     0.000000     0.000000     0.500000
 
 Subroutine IBZKPT returns following result:
 ===========================================
 
 Found     19 irreducible k-points:
 
 Following reciprocal coordinates:
            Coordinates               Weight
  0.000000  0.000000  0.000000      1.000000
  0.083333  0.000000  0.000000      6.000000
  0.166667  0.000000  0.000000      6.000000
  0.250000 -0.000000  0.000000      6.000000
  0.333333 -0.000000  0.000000      6.000000
  0.416667  0.000000  0.000000      6.000000
  0.500000 -0.000000  0.000000      3.000000
  0.083333  0.083333  0.000000      6.000000
  0.166667  0.083333  0.000000     12.000000
  0.250000  0.083333  0.000000     12.000000
  0.333333  0.083333  0.000000     12.000000
  0.416667  0.083333  0.000000     12.000000
  0.166667  0.166667  0.000000      6.000000
  0.250000  0.166667  0.000000     12.000000
  0.333333  0.166667  0.000000     12.000000
  0.416667  0.166667  0.000000      6.000000
  0.250000  0.250000  0.000000      6.000000
  0.333333  0.250000  0.000000     12.000000
  0.333333  0.333333  0.000000      2.000000
 
 Following cartesian coordinates:
            Coordinates               Weight
  0.000000  0.000000  0.000000      1.000000
  0.009299  0.016106  0.000000      6.000000
  0.018598  0.032212  0.000000      6.000000
  0.027897  0.048318  0.000000      6.000000
  0.037195  0.064424  0.000000      6.000000
  0.046494  0.080530  0.000000      6.000000
  0.055793  0.096636  0.000000      3.000000
  0.000000  0.032212  0.000000      6.000000
  0.009299  0.048318  0.000000     12.000000
  0.018598  0.064424  0.000000     12.000000
  0.027897  0.080530  0.000000     12.000000
  0.037195  0.096636  0.000000     12.000000
  0.000000  0.064424  0.000000      6.000000
  0.009299  0.080530  0.000000     12.000000
  0.018598  0.096636  0.000000     12.000000
  0.027897  0.112742  0.000000      6.000000
  0.000000  0.096636  0.000000      6.000000
  0.009299  0.112742  0.000000     12.000000
  0.000000  0.128848  0.000000      2.000000
 

 ----------------------------------------------------------------------------- 
|                                                                             |
|           W    W    AA    RRRRR   N    N  II  N    N   GGGG   !!!           |
|           W    W   A  A   R    R  NN   N  II  NN   N  G    G  !!!           |
|           W    W  A    A  R    R  N N  N  II  N N  N  G       !!!           |
|           W WW W  AAAAAA  RRRRR   N  N N  II  N  N N  G  GGG   !            |
|           WW  WW  A    A  R   R   N   NN  II  N   NN  G    G                |
|           W    W  A    A  R    R  N    N  II  N    N   GGGG   !!!           |
|                                                                             |
|      The number of bands has been changed from the values supplied          |
|      in the INCAR file. This is a result of running the parallel version.   |
|      The orbitals not found in the WAVECAR file will be initialized with    |
|      random numbers, which is usually adequate. For correlated              |
|      calculations, however, you should redo the groundstate calculation.    |
|      I found NBANDS    =      416  now  NBANDS  =     420                   |
|                                                                             |
 ----------------------------------------------------------------------------- 



--------------------------------------------------------------------------------------------------------




 Dimension of arrays:
   k-points           NKPTS =     19   k-points in BZ     NKDIM =     19   number of bands    NBANDS=    420
   number of dos      NEDOS =   2400   number of ions     NIONS =      8
   non local maximal  LDIM  =      4   non local SUM 2l+1 LMDIM =      8
   total plane-waves  NPLWV =  77760
   max r-space proj   IRMAX =      1   max aug-charges    IRDMAX=   6338
   dimension x,y,z NGX =    36 NGY =   36 NGZ =   60
   dimension x,y,z NGXF=    72 NGYF=   72 NGZF=  120
   support grid    NGXF=    72 NGYF=   72 NGZF=  120
   ions per type =               2   6
   NGX,Y,Z   is equivalent  to a cutoff of  11.57, 11.57, 11.71 a.u.
   NGXF,Y,Z  is equivalent  to a cutoff of  23.13, 23.13, 23.41 a.u.

 SYSTEM =  BC3-optical                             
 POSCAR =  BC3 with lattice parameter 5.174Ang, len

 Startparameter for this run:
   NWRITE =      3    write-flag & timer
   PREC   = accura    normal or accurate (medium, high low for compatibility)
   ISTART =      1    job   : 0-new  1-cont  2-samecut
   ICHARG =      2    charge: 1-file 2-atom 10-const
   ISPIN  =      1    spin polarized calculation?
   LNONCOLLINEAR =      F non collinear calculations
   LSORBIT =      F    spin-orbit coupling
   INIWAV =      1    electr: 0-lowe 1-rand  2-diag
   LASPH  =      F    aspherical Exc in radial PAW
   METAGGA=      F    non-selfconsistent MetaGGA calc.

 Electronic Relaxation 1
   ENCUT  =  450.0 eV  33.07 Ry    5.75 a.u.   8.95  8.95 14.74*2*pi/ulx,y,z
   ENINI  =  450.0     initial cutoff
   ENAUG  =  644.9 eV  augmentation charge cutoff
   NELM   =     60;   NELMIN=  2; NELMDL=  0     # of ELM steps 
   EDIFF  = 0.1E-07   stopping-criterion for ELM
   LREAL  =      F    real-space projection
   NLSPLINE    = F    spline interpolate recip. space projectors
   LCOMPAT=      F    compatible to vasp.4.4
   GGA_COMPAT  = T    GGA compatible to vasp.4.4-vasp.4.6
   LMAXPAW     = -100 max onsite density
   LMAXMIX     =    2 max onsite mixed and CHGCAR
   VOSKOWN=      0    Vosko Wilk Nusair interpolation
   ROPT   =    0.00000   0.00000
 Ionic relaxation
   EDIFFG = 0.1E-06   stopping-criterion for IOM
   NSW    =      0    number of steps for IOM
   NBLOCK =      1;   KBLOCK =      1    inner block; outer block 
   IBRION =     -1    ionic relax: 0-MD 1-quasi-New 2-CG
   NFREE  =      0    steps in history (QN), initial steepest desc. (CG)
   ISIF   =      2    stress and relaxation
   IWAVPR =     10    prediction:  0-non 1-charg 2-wave 3-comb
   ISYM   =      2    0-nonsym 1-usesym 2-fastsym
   LCORR  =      T    Harris-Foulkes like correction to forces

   POTIM  = 0.5000    time-step for ionic-motion
   TEIN   =    0.0    initial temperature
   TEBEG  =    0.0;   TEEND  =   0.0 temperature during run
   SMASS  =  -3.00    Nose mass-parameter (am)
   estimated Nose-frequenzy (Omega)   =  0.10E-29 period in steps =****** mass=  -0.612E-27a.u.
   SCALEE = 1.0000    scale energy and forces
   NPACO  =    256;   APACO  = 16.0  distance and # of slots for P.C.
   PSTRESS=    0.0 pullay stress

  Mass of Ions in am
   POMASS =  10.81 12.01
  Ionic Valenz
   ZVAL   =   3.00  4.00
  Atomic Wigner-Seitz radii
   RWIGS  =  -1.00 -1.00
  virtual crystal weights 
   VCA    =   1.00  1.00
   NELECT =      30.0000    total number of electrons
   NUPDOWN=      -1.0000    fix difference up-down

 DOS related values:
   EMIN   =  10.00;   EMAX   =-10.00  energy-range for DOS
   EFERMI =   0.00
   ISMEAR =     0;   SIGMA  =   0.01  broadening in eV -4-tet -1-fermi 0-gaus

 Electronic relaxation 2 (details)
   IALGO  =     90    algorithm
   LDIAG  =      T    sub-space diagonalisation (order eigenvalues)
   LSUBROT=      F    optimize rotation matrix (better conditioning)
   TURBO    =      0    0=normal 1=particle mesh
   IRESTART =      0    0=no restart 2=restart with 2 vectors
   NREBOOT  =      0    no. of reboots
   NMIN     =      0    reboot dimension
   EREF     =   0.00    reference energy to select bands
   IMIX   =      4    mixing-type and parameters
     AMIX     =   0.40;   BMIX     =  1.00
     AMIX_MAG =   1.60;   BMIX_MAG =  1.00
     AMIN     =   0.10
     WC   =   100.;   INIMIX=   1;  MIXPRE=   1;  MAXMIX= -45

 Intra band minimization:
   WEIMIN = 0.0000     energy-eigenvalue tresh-hold
   EBREAK =  0.60E-11  absolut break condition
   DEPER  =   0.30     relativ break condition  

   TIME   =   0.40     timestep for ELM

  volume/ion in A,a.u.               =      24.69       166.63
  Fermi-wavevector in a.u.,A,eV,Ry     =   0.873444  1.650570 10.379942  0.762904
  Thomas-Fermi vector in A             =   1.992835
 
 Write flags
   LWAVE        =      T    write WAVECAR
   LDOWNSAMPLE  =      F    k-point downsampling of WAVECAR
   LCHARG       =      T    write CHGCAR
   LVTOT        =      F    write LOCPOT, total local potential
   LVHAR        =      F    write LOCPOT, Hartree potential only
   LELF         =      F    write electronic localiz. function (ELF)
   LORBIT       =      0    0 simple, 1 ext, 2 COOP (PROOUT), +10 PAW based schemes


 Dipole corrections
   LMONO  =      F    monopole corrections only (constant potential shift)
   LDIPOL =      F    correct potential (dipole corrections)
   IDIPOL =      0    1-x, 2-y, 3-z, 4-all directions 
   EPSILON=  1.0000000 bulk dielectric constant

 Exchange correlation treatment:
   GGA     =    --    GGA type
   LEXCH   =     8    internal setting for exchange type
   VOSKOWN=      0    Vosko Wilk Nusair interpolation
   LHFCALC =     F    Hartree Fock is set to
   LHFONE  =     F    Hartree Fock one center treatment
   AEXX    =    0.0000 exact exchange contribution

 Linear response parameters
   LEPSILON=     F    determine dielectric tensor
   LRPA    =     F    only Hartree local field effects (RPA)
   LNABLA  =     F    use nabla operator in PAW spheres
   LVEL    =     F    velocity operator in full k-point grid
   LINTERFAST=   F  fast interpolation
   KINTER  =     0    interpolate to denser k-point grid
   CSHIFT  =0.1000    complex shift for real part using Kramers Kronig
   OMEGAMAX=  -1.0    maximum frequency
   DEG_THRESHOLD= 0.2000000E-02 threshold for treating states as degnerate
   RTIME   =   -0.100 relaxation time in fs
  (WPLASMAI=    0.000 imaginary part of plasma frequency in eV, 0.658/RTIME)
   DFIELD  = 0.0000000 0.0000000 0.0000000 field for delta impulse in time
 
 Orbital magnetization related:
   ORBITALMAG=     F  switch on orbital magnetization
   LCHIMAG   =     F  perturbation theory with respect to B field
   DQ        =  0.001000  dq finite difference perturbation B field
   LLRAUG    =     F  two centre corrections for induced B field



--------------------------------------------------------------------------------------------------------


 Static calculation
 charge density and potential will be updated during run
 non-spin polarized calculation
 Exact diagonalization
 preconditioned conjugated gradient (Jacobi prec)
    charged. constant during bandupdate  
    band-by band algorithm
 perform sub-space diagonalisation
    after iterative eigenvector-optimisation
 modified Broyden-mixing scheme, WC =      100.0
 initial mixing is a Kerker type mixing with AMIX =  0.4000 and BMIX =      1.0000
 Hartree-type preconditioning will be used
 using additional bands          405
 reciprocal scheme for non local part
 use partial core corrections
 calculate Harris-corrections to forces 
   (improved forces if not selfconsistent)
 use gradient corrections 
 use of overlap-Matrix (Vanderbilt PP)
 Gauss-broadening in eV      SIGMA  =   0.01


--------------------------------------------------------------------------------------------------------


  energy-cutoff  :      450.00
  volume of cell :      197.53
      direct lattice vectors                 reciprocal lattice vectors
     4.480848434  2.587018852  0.000000000     0.111586010  0.193272654  0.000000000
    -4.480848434  2.587018852  0.000000000    -0.111586010  0.193272654  0.000000000
     0.000000000  0.000000000  8.520221400     0.000000000  0.000000000  0.117367842

  length of vectors
     5.174038000  5.174038000  8.520221400     0.223172034  0.223172034  0.117367842


 
 old parameters found on file WAVECAR:
  energy-cutoff  :      450.00
  volume of cell :      197.53
      direct lattice vectors                 reciprocal lattice vectors
     4.480848434  2.587018852  0.000000000     0.111586010  0.193272654  0.000000000
    -4.480848434  2.587018852  0.000000000    -0.111586010  0.193272654  0.000000000
     0.000000000  0.000000000  8.520221400     0.000000000  0.000000000  0.117367842

  length of vectors

 
 k-points in units of 2pi/SCALE and weight: K-points for BC3                        
   0.00000000  0.00000000  0.00000000       0.007
   0.00929883  0.01610605  0.00000000       0.042
   0.01859767  0.03221211  0.00000000       0.042
   0.02789650  0.04831816  0.00000000       0.042
   0.03719534  0.06442422  0.00000000       0.042
   0.04649417  0.08053027  0.00000000       0.042
   0.05579301  0.09663633  0.00000000       0.021
   0.00000000  0.03221211  0.00000000       0.042
   0.00929883  0.04831816  0.00000000       0.083
   0.01859767  0.06442422  0.00000000       0.083
   0.02789650  0.08053027  0.00000000       0.083
   0.03719534  0.09663633  0.00000000       0.083
   0.00000000  0.06442422  0.00000000       0.042
   0.00929883  0.08053027  0.00000000       0.083
   0.01859767  0.09663633  0.00000000       0.083
   0.02789650  0.11274238  0.00000000       0.042
   0.00000000  0.09663633  0.00000000       0.042
   0.00929883  0.11274238  0.00000000       0.083
   0.00000000  0.12884844  0.00000000       0.014
 
 k-points in reciprocal lattice and weights: K-points for BC3                        
   0.00000000  0.00000000  0.00000000       0.007
   0.08333333  0.00000000  0.00000000       0.042
   0.16666667  0.00000000  0.00000000       0.042
   0.25000000 -0.00000000  0.00000000       0.042
   0.33333333 -0.00000000  0.00000000       0.042
   0.41666667  0.00000000  0.00000000       0.042
   0.50000000 -0.00000000  0.00000000       0.021
   0.08333333  0.08333333  0.00000000       0.042
   0.16666667  0.08333333  0.00000000       0.083
   0.25000000  0.08333333  0.00000000       0.083
   0.33333333  0.08333333  0.00000000       0.083
   0.41666667  0.08333333  0.00000000       0.083
   0.16666667  0.16666667  0.00000000       0.042
   0.25000000  0.16666667  0.00000000       0.083
   0.33333333  0.16666667  0.00000000       0.083
   0.41666667  0.16666667  0.00000000       0.042
   0.25000000  0.25000000  0.00000000       0.042
   0.33333333  0.25000000  0.00000000       0.083
   0.33333333  0.33333333  0.00000000       0.014
 
 position of ions in fractional coordinates (direct lattice) 
   0.33333300  0.66666600  0.25000000
   0.66666600  0.33333300  0.25000000
   0.15869124  0.31738348  0.25000000
   0.31738348  0.15869124  0.25000000
   0.15869124  0.84130776  0.25000000
   0.84130776  0.15869124  0.25000000
   0.68261552  0.84130776  0.25000000
   0.84130776  0.68261552  0.25000000
 
 position of ions in cartesian coordinates  (Angst):
  -1.49361465  2.58701626  2.13005535
   1.49361465  2.58701626  2.13005535
  -0.71107588  1.23161429  2.13005535
   0.71107588  1.23161429  2.13005535
  -3.05870114  2.58701626  2.13005535
   3.05870114  2.58701626  2.13005535
  -0.71107588  3.94241824  2.13005535
   0.71107588  3.94241824  2.13005535
 


--------------------------------------------------------------------------------------------------------


 k-point  1 :   0.0000 0.0000 0.0000  plane waves:    4271
 k-point  2 :   0.0833 0.0000 0.0000  plane waves:    4257
 k-point  3 :   0.1667 0.0000 0.0000  plane waves:    4273
 k-point  4 :   0.2500-0.0000 0.0000  plane waves:    4286
 k-point  5 :   0.3333-0.0000 0.0000  plane waves:    4272
 k-point  6 :   0.4167 0.0000 0.0000  plane waves:    4280
 k-point  7 :   0.5000-0.0000 0.0000  plane waves:    4280
 k-point  8 :   0.0833 0.0833 0.0000  plane waves:    4273
 k-point  9 :   0.1667 0.0833 0.0000  plane waves:    4261
 k-point 10 :   0.2500 0.0833 0.0000  plane waves:    4277
 k-point 11 :   0.3333 0.0833 0.0000  plane waves:    4283
 k-point 12 :   0.4167 0.0833 0.0000  plane waves:    4292
 k-point 13 :   0.1667 0.1667 0.0000  plane waves:    4267
 k-point 14 :   0.2500 0.1667 0.0000  plane waves:    4287
 k-point 15 :   0.3333 0.1667 0.0000  plane waves:    4297
 k-point 16 :   0.4167 0.1667 0.0000  plane waves:    4305
 k-point 17 :   0.2500 0.2500 0.0000  plane waves:    4283
 k-point 18 :   0.3333 0.2500 0.0000  plane waves:    4306
 k-point 19 :   0.3333 0.3333 0.0000  plane waves:    4323

 maximum and minimum number of plane-waves per node :      4323     4257

 maximum number of plane-waves:      4323
 maximum index in each direction: 
   IXMAX=    8   IYMAX=    8   IZMAX=   14
   IXMIN=   -9   IYMIN=   -9   IZMIN=  -14


 serial   3D FFT for wavefunctions
 parallel 3D FFT for charge:
    minimum data exchange during FFTs selected (reduces bandwidth)


 total amount of memory used by VASP MPI-rank0    96129. kBytes
=======================================================================

   base      :      30000. kBytes
   nonl-proj :      11089. kBytes
   fftplans  :       2090. kBytes
   grid      :       6068. kBytes
   one-center:         24. kBytes
   wavefun   :      46858. kBytes
 
     INWAV:  cpu time    1.2889: real time    2.7281
 Broyden mixing: mesh for mixing (old mesh)
   NGX = 17   NGY = 17   NGZ = 29
  (NGX  = 72   NGY  = 72   NGZ  =120)
  gives a total of   8381 points

 initial charge density was supplied:
 charge density of overlapping atoms calculated
 number of electron      30.0000000 magnetization 
 keeping initial charge density in first step


--------------------------------------------------------------------------------------------------------


 Maximum index for augmentation-charges          403 (set IRDMAX)


--------------------------------------------------------------------------------------------------------


 First call to EWALD:  gamma=   0.304
 Maximum number of real-space cells 3x 3x 2
 Maximum number of reciprocal cells 2x 2x 4

    FEWALD:  cpu time    0.0017: real time    0.0020


--------------------------------------- Iteration      1(   1)  ---------------------------------------


    POTLOK:  cpu time    0.0367: real time    0.0376
    SETDIJ:  cpu time    0.0019: real time    0.0019

 total amount of memory used by VASP MPI-rank0   579441. kBytes
=======================================================================

   base      :      30000. kBytes
   nonl-proj :      11089. kBytes
   fftplans  :       2090. kBytes
   grid      :       6068. kBytes
   one-center:         24. kBytes
   wavefun   :     530170. kBytes
 
    EDDIAG:  cpu time  559.9365: real time  559.9464
       DOS:  cpu time    0.0042: real time    0.0042
    CHARGE:  cpu time    0.0578: real time    0.0578
    MIXING:  cpu time    0.0010: real time    0.0010
    --------------------------------------------
      LOOP:  cpu time  560.0382: real time  560.0490

 eigenvalue-minimisations  :     0
 total energy-change (2. order) :-0.7344063E+02  ( 0.0000000E+00)
 number of electron      29.9999996 magnetization 
 augmentation part        0.5836578 magnetization 

 Broyden mixing:
  rms(total) = 0.13116E+01    rms(broyden)= 0.13111E+01
  rms(prec ) = 0.18282E+01
  weight for this iteration     100.00

 Free energy of the ion-electron system (eV)
  ---------------------------------------------------
  alpha Z        PSCENC =        25.67921176
  Ewald energy   TEWEN  =       700.27145080
  -Hartree energ DENC   =     -1524.76618073
  -exchange      EXHF   =         0.00000000
  -V(xc)+E(xc)   XCENC  =        91.14273073
  PAW double counting   =       738.13200929     -739.83780425
  entropy T*S    EENTRO =        -0.00000000
  eigenvalues    EBANDS =      -389.26594481
  atomic energy  EATOM  =      1025.20389953
  Solvation  Ediel_sol  =         0.00000000
  ---------------------------------------------------
  free energy    TOTEN  =       -73.44062769 eV

  energy without entropy =      -73.44062769  energy(sigma->0) =      -73.44062769


--------------------------------------------------------------------------------------------------------




 average (electrostatic) potential at core
  the test charge radii are     0.7672  0.6991
  (the norm of the test charge is              1.0000)
       1 -38.0355       2 -38.0355       3 -61.8204       4 -61.8204       5 -61.8204
       6 -61.8204       7 -61.8204       8 -61.8204
 
 
 
 E-fermi :  -6.3768     XC(G=0):  -5.3024     alpha+bet : -4.1680


 k-point     1 :       0.0000    0.0000    0.0000
  band No.  band energies     occupation 
      1     -22.7334      2.00000
      2     -19.0608      2.00000
      3     -19.0608      2.00000
      4     -16.6384      2.00000
      5     -16.6384      2.00000
      6     -15.2938      2.00000
      7     -13.8399      2.00000
      8     -12.0412      2.00000
      9     -10.2609      2.00000
     10      -9.5172      2.00000
     11      -9.5172      2.00000
     12      -7.2387      2.00000
     13      -7.2386      2.00000
     14      -6.4428      2.00000
     15      -6.4428      2.00000
     16      -3.3504      0.00000
     17      -2.0528      0.00000
     18      -2.0527      0.00000
     19      -0.6510      0.00000
     20       1.9794      0.00000
     21       2.5313      0.00000
     22       2.5313      0.00000
     23       3.8416      0.00000
     24       3.8417      0.00000
     25       3.9800      0.00000
     26       4.5773      0.00000
     27       6.2084      0.00000
     28       6.6740      0.00000
     29       7.1884      0.00000
     30       9.0932      0.00000
     31       9.0932      0.00000
     32       9.2331      0.00000
     33       9.2331      0.00000
     34       9.2629      0.00000
     35       9.5070      0.00000
     36       9.8613      0.00000
     37       9.8613      0.00000
     38      10.8167      0.00000
     39      11.4810      0.00000
     40      11.4810      0.00000
     41      12.0072      0.00000
     42      12.5361      0.00000
     43      12.5361      0.00000
     44      12.5580      0.00000
     45      12.6502      0.00000
     46      12.6502      0.00000
     47      12.6733      0.00000
     48      12.7530      0.00000
     49      14.0183      0.00000
     50      14.0570      0.00000
     51      14.0570      0.00000
     52      15.1094      0.00000
     53      15.1094      0.00000
     54      15.3423      0.00000
     55      15.3578      0.00000
     56      15.9135      0.00000
     57      15.9136      0.00000
     58      16.6291      0.00000
     59      17.1498      0.00000
     60      17.2962      0.00000
     61      17.2962      0.00000
     62      17.3437      0.00000
     63      19.1215      0.00000
     64      19.3989      0.00000
     65      19.3990      0.00000
     66      19.5213      0.00000
     67      19.5213      0.00000
     68      20.1932      0.00000
     69      22.4565      0.00000
     70      22.7715      0.00000
     71      22.7715      0.00000
     72      22.8460      0.00000
     73      22.8898      0.00000
     74      22.8898      0.00000
     75      23.3340      0.00000
     76      23.3340      0.00000
     77      23.5572      0.00000
     78      23.7351      0.00000
     79      23.8463      0.00000
     80      23.8463      0.00000
     81      24.2555      0.00000
     82      24.2555      0.00000
     83      24.6889      0.00000
     84      25.2652      0.00000
     85      25.3046      0.00000
     86      25.3046      0.00000
     87      26.3470      0.00000
     88      26.7073      0.00000
     89      26.7073      0.00000
     90      26.7150      0.00000
     91      26.7150      0.00000
     92      27.1682      0.00000
     93      27.4943      0.00000
     94      27.4943      0.00000
     95      28.0275      0.00000
     96      28.0801      0.00000
     97      28.0801      0.00000
     98      28.6483      0.00000
     99      28.6483      0.00000
    100      28.6779      0.00000
    101      29.2626      0.00000
    102      29.3726      0.00000
    103      29.6013      0.00000
    104      29.9376      0.00000
    105      29.9376      0.00000
    106      31.0615      0.00000
    107      31.0615      0.00000
    108      31.4313      0.00000
    109      31.4313      0.00000
    110      31.4426      0.00000
    111      31.4426      0.00000
    112      32.0442      0.00000
    113      32.2088      0.00000
    114      32.7512      0.00000
    115      33.0095      0.00000
    116      33.0095      0.00000
    117      33.4155      0.00000
    118      33.7378      0.00000
    119      34.8430      0.00000
    120      34.8430      0.00000
    121      35.0498      0.00000
    122      35.0498      0.00000
    123      35.2480      0.00000
    124      35.2480      0.00000
    125      35.8334      0.00000
    126      35.9073      0.00000
    127      35.9968      0.00000
    128      35.9968      0.00000
    129      36.2325      0.00000
    130      36.2325      0.00000
    131      36.7475      0.00000
    132      36.8579      0.00000
    133      36.9004      0.00000
    134      36.9004      0.00000
    135      37.0144      0.00000
    136      37.0145      0.00000
    137      37.0630      0.00000
    138      37.2349      0.00000
    139      37.2394      0.00000
    140      37.2394      0.00000
    141      37.3265      0.00000
    142      37.4796      0.00000
    143      37.7853      0.00000
    144      37.7853      0.00000
    145      38.1150      0.00000
    146      38.5038      0.00000
    147      38.5038      0.00000
    148      39.8939      0.00000
    149      39.8939      0.00000
    150      40.5779      0.00000
    151      41.9869      0.00000
    152      42.1493      0.00000
    153      42.1493      0.00000
    154      42.7173      0.00000
    155      42.9443      0.00000
    156      42.9444      0.00000
    157      43.0637      0.00000
    158      43.1436      0.00000
    159      43.1437      0.00000
    160      43.5459      0.00000
    161      43.5459      0.00000
    162      44.1904      0.00000
    163      44.1904      0.00000
    164      44.5892      0.00000
    165      45.3878      0.00000
    166      45.3878      0.00000
    167      45.7388      0.00000
    168      46.0919      0.00000
    169      46.2794      0.00000
    170      46.2794      0.00000
    171      46.8307      0.00000
    172      46.8307      0.00000
    173      46.9280      0.00000
    174      47.4003      0.00000
    175      47.5725      0.00000
    176      47.5725      0.00000
    177      47.6279      0.00000
    178      47.6317      0.00000
    179      47.6871      0.00000
    180      48.2515      0.00000
    181      48.2515      0.00000
    182      49.2205      0.00000
    183      49.2814      0.00000
    184      49.4720      0.00000
    185      49.4720      0.00000
    186      50.1412      0.00000
    187      50.1966      0.00000
    188      50.1967      0.00000
    189      50.9677      0.00000
    190      50.9677      0.00000
    191      51.0889      0.00000
    192      51.0889      0.00000
    193      51.6260      0.00000
    194      52.0246      0.00000
    195      52.0246      0.00000
    196      52.3903      0.00000
    197      52.6509      0.00000
    198      52.6510      0.00000
    199      53.0149      0.00000
    200      53.3384      0.00000
    201      53.3384      0.00000
    202      53.6600      0.00000
    203      54.1221      0.00000
    204      54.1629      0.00000
    205      54.1629      0.00000
    206      54.4662      0.00000
    207      54.5078      0.00000
    208      54.5078      0.00000
    209      54.6635      0.00000
    210      54.9176      0.00000
    211      54.9177      0.00000
    212      54.9189      0.00000
    213      55.4203      0.00000
    214      55.4793      0.00000
    215      55.5081      0.00000
    216      55.5081      0.00000
    217      55.7614      0.00000
    218      55.8542      0.00000
    219      55.8543      0.00000
    220      56.0073      0.00000
    221      56.0073      0.00000
    222      57.0055      0.00000
    223      57.0055      0.00000
    224      57.0958      0.00000
    225      57.0958      0.00000
    226      57.1169      0.00000
    227      57.2177      0.00000
    228      57.2177      0.00000
    229      57.2614      0.00000
    230      57.4583      0.00000
    231      57.8026      0.00000
    232      57.8076      0.00000
    233      57.8076      0.00000
    234      57.8151      0.00000
    235      57.8151      0.00000
    236      58.0570      0.00000
    237      58.1610      0.00000
    238      58.1610      0.00000
    239      58.1646      0.00000
    240      58.1925      0.00000
    241      58.3050      0.00000
    242      58.3050      0.00000
    243      58.3358      0.00000
    244      58.3359      0.00000
    245      58.6214      0.00000
    246      58.6247      0.00000
    247      58.6248      0.00000
    248      59.3303      0.00000
    249      59.3860      0.00000
    250      59.3860      0.00000
    251      59.4239      0.00000
    252      59.6646      0.00000
    253      59.6647      0.00000
    254      60.1320      0.00000
    255      60.1321      0.00000
    256      60.4905      0.00000
    257      61.1757      0.00000
    258      61.1757      0.00000
    259      61.4505      0.00000
    260      61.8680      0.00000
    261      62.1572      0.00000
    262      62.1572      0.00000
    263      62.2775      0.00000
    264      62.2775      0.00000
    265      64.4226      0.00000
    266      64.4226      0.00000
    267      64.9369      0.00000
    268      64.9369      0.00000
    269      65.0464      0.00000
    270      65.1199      0.00000
    271      65.5473      0.00000
    272      65.5599      0.00000
    273      65.6674      0.00000
    274      65.6674      0.00000
    275      65.6812      0.00000
    276      65.6812      0.00000
    277      66.0698      0.00000
    278      66.3203      0.00000
    279      66.3698      0.00000
    280      66.3698      0.00000
    281      66.9847      0.00000
    282      67.0303      0.00000
    283      67.0617      0.00000
    284      67.0617      0.00000
    285      67.1801      0.00000
    286      67.4717      0.00000
    287      67.4717      0.00000
    288      67.6925      0.00000
    289      67.6925      0.00000
    290      67.8205      0.00000
    291      67.8206      0.00000
    292      68.1618      0.00000
    293      68.1729      0.00000
    294      68.2761      0.00000
    295      68.3059      0.00000
    296      68.3060      0.00000
    297      69.0056      0.00000
    298      69.3152      0.00000
    299      69.3152      0.00000
    300      69.3543      0.00000
    301      69.4263      0.00000
    302      69.4263      0.00000
    303      69.6114      0.00000
    304      69.6365      0.00000
    305      69.6365      0.00000
    306      69.9364      0.00000
    307      70.3221      0.00000
    308      70.3222      0.00000
    309      70.6580      0.00000
    310      70.9173      0.00000
    311      71.3167      0.00000
    312      71.3167      0.00000
    313      71.8103      0.00000
    314      71.8103      0.00000
    315      71.9997      0.00000
    316      72.3135      0.00000
    317      72.3135      0.00000
    318      72.4449      0.00000
    319      72.7315      0.00000
    320      72.7315      0.00000
    321      72.7645      0.00000
    322      72.8521      0.00000
    323      72.8741      0.00000
    324      72.8741      0.00000
    325      73.1567      0.00000
    326      73.1567      0.00000
    327      73.1813      0.00000
    328      73.2574      0.00000
    329      73.2574      0.00000
    330      73.3131      0.00000
    331      73.6821      0.00000
    332      74.2223      0.00000
    333      74.2224      0.00000
    334      74.7501      0.00000
    335      75.5408      0.00000
    336      76.1748      0.00000
    337      76.2596      0.00000
    338      76.2596      0.00000
    339      76.5514      0.00000
    340      76.5515      0.00000
    341      77.1056      0.00000
    342      77.3072      0.00000
    343      77.3072      0.00000
    344      77.3664      0.00000
    345      77.5868      0.00000
    346      77.5868      0.00000
    347      77.8561      0.00000
    348      77.8562      0.00000
    349      77.9378      0.00000
    350      77.9378      0.00000
    351      78.1702      0.00000
    352      78.1702      0.00000
    353      78.2629      0.00000
    354      78.3606      0.00000
    355      79.1492      0.00000
    356      79.1492      0.00000
    357      79.5671      0.00000
    358      79.5671      0.00000
    359      79.7231      0.00000
    360      79.7853      0.00000
    361      80.1448      0.00000
    362      80.1448      0.00000
    363      80.1713      0.00000
    364      80.6717      0.00000
    365      80.6717      0.00000
    366      80.7195      0.00000
    367      80.9254      0.00000
    368      80.9255      0.00000
    369      81.0838      0.00000
    370      81.2772      0.00000
    371      81.5147      0.00000
    372      81.5538      0.00000
    373      81.6268      0.00000
    374      81.6268      0.00000
    375      81.6502      0.00000
    376      81.6601      0.00000
    377      81.6601      0.00000
    378      81.7946      0.00000
    379      81.7946      0.00000
    380      82.1998      0.00000
    381      82.3257      0.00000
    382      82.3636      0.00000
    383      82.3636      0.00000
    384      82.5564      0.00000
    385      82.5564      0.00000
    386      82.5582      0.00000
    387      82.7683      0.00000
    388      82.7683      0.00000
    389      83.0494      0.00000
    390      83.0494      0.00000
    391      83.7241      0.00000
    392      83.7241      0.00000
    393      83.9160      0.00000
    394      83.9160      0.00000
    395      84.7456      0.00000
    396      85.1058      0.00000
    397      85.1058      0.00000
    398      85.2513      0.00000
    399      86.1805      0.00000
    400      87.9187      0.00000
    401      87.9187      0.00000
    402      88.0498      0.00000
    403      88.0498      0.00000
    404      88.5239      0.00000
    405      88.5301      0.00000
    406      89.0227      0.00000
    407      89.0227      0.00000
    408      89.0824      0.00000
    409      89.7294      0.00000
    410      89.7294      0.00000
    411      91.5493      0.00000
    412      91.5761      0.00000
    413      91.5761      0.00000
    414      91.6227      0.00000
    415      91.6897      0.00000
    416      91.6897      0.00000
    417      91.7079      0.00000
    418      91.7781      0.00000
    419      91.8930      0.00000
    420      91.8930      0.00000

 k-point     2 :       0.0833    0.0000    0.0000
  band No.  band energies     occupation 
      1     -22.7092      2.00000
      2     -19.1697      2.00000
      3     -19.0963      2.00000
      4     -16.6580      2.00000
      5     -16.5518      2.00000
      6     -15.1781      2.00000
      7     -13.7107      2.00000
      8     -12.0886      2.00000
      9     -10.2231      2.00000
     10      -9.6263      2.00000
     11      -9.5365      2.00000
     12      -7.3633      2.00000
     13      -7.2988      2.00000
     14      -6.5412      2.00000
     15      -6.4577      2.00000
     16      -3.5843      0.00000
     17      -2.0098      0.00000
     18      -1.7217      0.00000
     19      -0.5566      0.00000
     20       2.0338      0.00000
     21       2.5952      0.00000
     22       2.6812      0.00000
     23       3.8623      0.00000
     24       3.9962      0.00000
     25       4.0807      0.00000
     26       4.6263      0.00000
     27       6.2594      0.00000
     28       6.5500      0.00000
     29       7.1776      0.00000
     30       8.2304      0.00000
     31       8.6677      0.00000
     32       8.8758      0.00000
     33       9.6061      0.00000
     34       9.6717      0.00000
     35       9.6883      0.00000
     36       9.8412      0.00000
     37      10.2762      0.00000
     38      10.4645      0.00000
     39      11.6178      0.00000
     40      11.7160      0.00000
     41      11.8262      0.00000
     42      12.0907      0.00000
     43      12.1429      0.00000
     44      12.2175      0.00000
     45      12.7258      0.00000
     46      12.7268      0.00000
     47      13.1598      0.00000
     48      13.2911      0.00000
     49      13.7643      0.00000
     50      14.0518      0.00000
     51      14.1805      0.00000
     52      14.8966      0.00000
     53      14.9929      0.00000
     54      15.3519      0.00000
     55      15.3962      0.00000
     56      16.0229      0.00000
     57      16.0512      0.00000
     58      16.7489      0.00000
     59      17.2270      0.00000
     60      17.3632      0.00000
     61      17.6882      0.00000
     62      17.6938      0.00000
     63      19.0589      0.00000
     64      19.2691      0.00000
     65      19.3317      0.00000
     66      19.4706      0.00000
     67      19.4919      0.00000
     68      20.1154      0.00000
     69      22.0831      0.00000
     70      22.4833      0.00000
     71      22.5236      0.00000
     72      22.7104      0.00000
     73      22.7782      0.00000
     74      22.8059      0.00000
     75      22.8417      0.00000
     76      23.2708      0.00000
     77      23.2941      0.00000
     78      23.4883      0.00000
     79      23.5841      0.00000
     80      23.6097      0.00000
     81      24.6411      0.00000
     82      24.8230      0.00000
     83      25.1162      0.00000
     84      25.1788      0.00000
     85      25.5919      0.00000
     86      25.7032      0.00000
     87      25.7718      0.00000
     88      25.8409      0.00000
     89      26.8458      0.00000
     90      26.8601      0.00000
     91      26.8741      0.00000
     92      26.9531      0.00000
     93      27.1439      0.00000
     94      27.1653      0.00000
     95      28.1190      0.00000
     96      28.5846      0.00000
     97      28.7167      0.00000
     98      29.0666      0.00000
     99      29.1691      0.00000
    100      29.2620      0.00000
    101      29.2704      0.00000
    102      29.5007      0.00000
    103      29.8678      0.00000
    104      30.1935      0.00000
    105      30.2778      0.00000
    106      30.6646      0.00000
    107      30.7327      0.00000
    108      31.1021      0.00000
    109      31.2823      0.00000
    110      31.3824      0.00000
    111      31.8940      0.00000
    112      32.4714      0.00000
    113      32.5769      0.00000
    114      32.6523      0.00000
    115      32.7836      0.00000
    116      32.9712      0.00000
    117      33.5486      0.00000
    118      33.5873      0.00000
    119      33.7767      0.00000
    120      33.8259      0.00000
    121      34.1746      0.00000
    122      34.3988      0.00000
    123      35.1414      0.00000
    124      35.4612      0.00000
    125      35.5245      0.00000
    126      35.7102      0.00000
    127      36.0296      0.00000
    128      36.0953      0.00000
    129      36.1784      0.00000
    130      36.3418      0.00000
    131      36.7166      0.00000
    132      36.7877      0.00000
    133      36.9917      0.00000
    134      36.9994      0.00000
    135      37.1638      0.00000
    136      37.2453      0.00000
    137      37.4911      0.00000
    138      37.6127      0.00000
    139      37.7848      0.00000
    140      37.8812      0.00000
    141      37.9530      0.00000
    142      38.0018      0.00000
    143      38.5003      0.00000
    144      38.5948      0.00000
    145      38.7194      0.00000
    146      39.3377      0.00000
    147      39.5309      0.00000
    148      39.7393      0.00000
    149      40.0701      0.00000
    150      40.1129      0.00000
    151      41.3029      0.00000
    152      41.4493      0.00000
    153      41.6867      0.00000
    154      41.8408      0.00000
    155      42.0681      0.00000
    156      42.5245      0.00000
    157      42.8413      0.00000
    158      43.1276      0.00000
    159      43.1348      0.00000
    160      43.4702      0.00000
    161      43.5492      0.00000
    162      43.5989      0.00000
    163      44.0878      0.00000
    164      44.7383      0.00000
    165      45.1759      0.00000
    166      45.2105      0.00000
    167      45.9704      0.00000
    168      46.2093      0.00000
    169      46.3087      0.00000
    170      46.4309      0.00000
    171      46.5952      0.00000
    172      46.6155      0.00000
    173      46.7968      0.00000
    174      47.1442      0.00000
    175      47.4605      0.00000
    176      47.7763      0.00000
    177      48.2869      0.00000
    178      48.3416      0.00000
    179      48.4740      0.00000
    180      49.0408      0.00000
    181      49.0417      0.00000
    182      49.1472      0.00000
    183      49.3983      0.00000
    184      49.6742      0.00000
    185      49.6818      0.00000
    186      50.0239      0.00000
    187      50.0897      0.00000
    188      50.1548      0.00000
    189      50.4540      0.00000
    190      50.6615      0.00000
    191      51.3334      0.00000
    192      51.4720      0.00000
    193      51.6686      0.00000
    194      51.8679      0.00000
    195      52.0388      0.00000
    196      52.0482      0.00000
    197      52.2502      0.00000
    198      52.4066      0.00000
    199      52.4102      0.00000
    200      52.8665      0.00000
    201      53.1121      0.00000
    202      53.1901      0.00000
    203      53.5436      0.00000
    204      53.6653      0.00000
    205      53.6806      0.00000
    206      53.9770      0.00000
    207      54.1680      0.00000
    208      54.2448      0.00000
    209      54.6694      0.00000
    210      54.7494      0.00000
    211      54.8298      0.00000
    212      54.8474      0.00000
    213      54.8897      0.00000
    214      54.9356      0.00000
    215      55.0969      0.00000
    216      55.2538      0.00000
    217      55.6909      0.00000
    218      55.8479      0.00000
    219      55.8766      0.00000
    220      55.9216      0.00000
    221      56.0235      0.00000
    222      56.0933      0.00000
    223      56.2448      0.00000
    224      56.3293      0.00000
    225      56.4143      0.00000
    226      56.4182      0.00000
    227      56.7420      0.00000
    228      57.0043      0.00000
    229      57.0654      0.00000
    230      57.1188      0.00000
    231      57.2175      0.00000
    232      57.4037      0.00000
    233      57.5925      0.00000
    234      57.6688      0.00000
    235      57.8959      0.00000
    236      57.9958      0.00000
    237      58.1118      0.00000
    238      58.1136      0.00000
    239      58.2141      0.00000
    240      58.2862      0.00000
    241      58.5328      0.00000
    242      58.6716      0.00000
    243      59.1612      0.00000
    244      59.5190      0.00000
    245      59.5926      0.00000
    246      59.7562      0.00000
    247      60.0091      0.00000
    248      60.1556      0.00000
    249      60.1957      0.00000
    250      60.4148      0.00000
    251      60.5691      0.00000
    252      60.5970      0.00000
    253      60.6420      0.00000
    254      60.7423      0.00000
    255      60.8097      0.00000
    256      61.0367      0.00000
    257      61.4889      0.00000
    258      61.5977      0.00000
    259      61.6641      0.00000
    260      62.2972      0.00000
    261      62.7427      0.00000
    262      63.0159      0.00000
    263      63.0609      0.00000
    264      63.2366      0.00000
    265      63.5275      0.00000
    266      63.5802      0.00000
    267      63.7380      0.00000
    268      63.8021      0.00000
    269      63.8261      0.00000
    270      64.3403      0.00000
    271      64.3769      0.00000
    272      64.5438      0.00000
    273      64.8286      0.00000
    274      64.9890      0.00000
    275      65.5383      0.00000
    276      65.6896      0.00000
    277      65.7894      0.00000
    278      65.8052      0.00000
    279      65.9417      0.00000
    280      66.2448      0.00000
    281      66.3120      0.00000
    282      66.6997      0.00000
    283      66.7506      0.00000
    284      67.2244      0.00000
    285      67.2772      0.00000
    286      67.3216      0.00000
    287      67.5616      0.00000
    288      67.6026      0.00000
    289      67.7564      0.00000
    290      67.9715      0.00000
    291      68.1944      0.00000
    292      68.2950      0.00000
    293      68.8195      0.00000
    294      68.8428      0.00000
    295      68.8538      0.00000
    296      69.1357      0.00000
    297      69.2949      0.00000
    298      69.3176      0.00000
    299      69.4425      0.00000
    300      69.4809      0.00000
    301      69.5461      0.00000
    302      69.7006      0.00000
    303      70.1602      0.00000
    304      70.2362      0.00000
    305      70.3906      0.00000
    306      70.4208      0.00000
    307      70.4908      0.00000
    308      70.8144      0.00000
    309      70.8835      0.00000
    310      71.1398      0.00000
    311      71.2078      0.00000
    312      71.2138      0.00000
    313      71.3411      0.00000
    314      71.4082      0.00000
    315      71.4799      0.00000
    316      71.5123      0.00000
    317      71.6867      0.00000
    318      72.1109      0.00000
    319      72.3452      0.00000
    320      72.6233      0.00000
    321      72.7377      0.00000
    322      72.9518      0.00000
    323      73.0873      0.00000
    324      73.1556      0.00000
    325      73.4399      0.00000
    326      73.4599      0.00000
    327      73.8488      0.00000
    328      74.0144      0.00000
    329      74.7295      0.00000
    330      74.7854      0.00000
    331      74.9814      0.00000
    332      75.0549      0.00000
    333      75.2513      0.00000
    334      75.5368      0.00000
    335      75.9161      0.00000
    336      76.0671      0.00000
    337      76.1190      0.00000
    338      76.2320      0.00000
    339      76.2809      0.00000
    340      76.5287      0.00000
    341      76.8873      0.00000
    342      76.9609      0.00000
    343      77.0964      0.00000
    344      77.2456      0.00000
    345      77.3000      0.00000
    346      77.6068      0.00000
    347      77.6918      0.00000
    348      77.8653      0.00000
    349      77.9036      0.00000
    350      78.0860      0.00000
    351      78.1560      0.00000
    352      78.1844      0.00000
    353      78.2773      0.00000
    354      78.4130      0.00000
    355      78.4159      0.00000
    356      78.6081      0.00000
    357      78.6650      0.00000
    358      78.7748      0.00000
    359      78.9126      0.00000
    360      79.3453      0.00000
    361      79.4228      0.00000
    362      79.5387      0.00000
    363      79.5431      0.00000
    364      79.8179      0.00000
    365      79.8187      0.00000
    366      79.9882      0.00000
    367      80.1084      0.00000
    368      80.2538      0.00000
    369      80.2916      0.00000
    370      80.5392      0.00000
    371      80.8301      0.00000
    372      81.2153      0.00000
    373      81.4806      0.00000
    374      81.5296      0.00000
    375      81.7120      0.00000
    376      81.8775      0.00000
    377      81.9036      0.00000
    378      82.1006      0.00000
    379      82.1331      0.00000
    380      82.5794      0.00000
    381      82.7247      0.00000
    382      82.7923      0.00000
    383      83.1891      0.00000
    384      83.3848      0.00000
    385      83.5596      0.00000
    386      83.5781      0.00000
    387      83.8030      0.00000
    388      84.1951      0.00000
    389      84.2396      0.00000
    390      84.3385      0.00000
    391      84.4672      0.00000
    392      84.5305      0.00000
    393      84.8601      0.00000
    394      85.0922      0.00000
    395      85.4859      0.00000
    396      85.5192      0.00000
    397      85.6208      0.00000
    398      85.7921      0.00000
    399      86.3392      0.00000
    400      86.7285      0.00000
    401      87.3182      0.00000
    402      87.5215      0.00000
    403      87.8530      0.00000
    404      87.8570      0.00000
    405      88.0348      0.00000
    406      88.4458      0.00000
    407      88.9993      0.00000
    408      89.2777      0.00000
    409      89.7942      0.00000
    410      90.4206      0.00000
    411      90.5460      0.00000
    412      90.6511      0.00000
    413      90.6951      0.00000
    414      90.7294      0.00000
    415      90.7399      0.00000
    416      91.3777      0.00000
    417      91.5135      0.00000
    418      91.6598      0.00000
    419      91.6929      0.00000
    420      91.8930      0.00000

 k-point     3 :       0.1667    0.0000    0.0000
  band No.  band energies     occupation 
      1     -22.6393      2.00000
      2     -19.4441      2.00000
      3     -19.1850      2.00000
      4     -16.7267      2.00000
      5     -16.3133      2.00000
      6     -14.8445      2.00000
      7     -13.3545      2.00000
      8     -12.2371      2.00000
      9     -10.1114      2.00000
     10      -9.9344      2.00000
     11      -9.5723      2.00000
     12      -7.7210      2.00000
     13      -7.4666      2.00000
     14      -6.8155      2.00000
     15      -6.4979      2.00000
     16      -3.9586      0.00000
     17      -1.8924      0.00000
     18      -1.1238      0.00000
     19      -0.2355      0.00000
     20       2.1895      0.00000
     21       2.7489      0.00000
     22       3.1163      0.00000
     23       3.9296      0.00000
     24       4.3759      0.00000
     25       4.4425      0.00000
     26       4.7730      0.00000
     27       6.1897      0.00000
     28       6.3976      0.00000
     29       6.9335      0.00000
     30       7.6012      0.00000
     31       8.2514      0.00000
     32       8.5816      0.00000
     33       9.0000      0.00000
     34       9.2614      0.00000
     35       9.9841      0.00000
     36      10.0946      0.00000
     37      10.3743      0.00000
     38      10.8247      0.00000
     39      11.1186      0.00000
     40      11.7157      0.00000
     41      11.8067      0.00000
     42      11.8141      0.00000
     43      11.9519      0.00000
     44      12.4367      0.00000
     45      12.5192      0.00000
     46      12.8854      0.00000
     47      13.0919      0.00000
     48      13.2277      0.00000
     49      13.8963      0.00000
     50      14.2175      0.00000
     51      14.6341      0.00000
     52      14.6635      0.00000
     53      14.8129      0.00000
     54      15.5278      0.00000
     55      15.7168      0.00000
     56      16.3551      0.00000
     57      16.3651      0.00000
     58      17.1248      0.00000
     59      17.4341      0.00000
     60      17.5062      0.00000
     61      18.2430      0.00000
     62      18.2790      0.00000
     63      18.9168      0.00000
     64      18.9509      0.00000
     65      19.1427      0.00000
     66      19.3731      0.00000
     67      19.5619      0.00000
     68      20.2092      0.00000
     69      20.7036      0.00000
     70      21.0108      0.00000
     71      21.5893      0.00000
     72      22.1654      0.00000
     73      22.4575      0.00000
     74      22.6263      0.00000
     75      23.0618      0.00000
     76      23.1497      0.00000
     77      23.5654      0.00000
     78      23.6139      0.00000
     79      23.7247      0.00000
     80      24.1658      0.00000
     81      24.2608      0.00000
     82      24.5507      0.00000
     83      24.5991      0.00000
     84      24.6681      0.00000
     85      25.0038      0.00000
     86      25.4196      0.00000
     87      25.4789      0.00000
     88      26.4331      0.00000
     89      27.0409      0.00000
     90      27.0418      0.00000
     91      27.1704      0.00000
     92      27.1842      0.00000
     93      27.9529      0.00000
     94      28.0626      0.00000
     95      28.0708      0.00000
     96      28.3614      0.00000
     97      28.8956      0.00000
     98      28.9704      0.00000
     99      29.3725      0.00000
    100      29.5771      0.00000
    101      29.8977      0.00000
    102      30.0461      0.00000
    103      30.3615      0.00000
    104      30.4814      0.00000
    105      30.7029      0.00000
    106      30.8449      0.00000
    107      30.8854      0.00000
    108      30.9741      0.00000
    109      31.3102      0.00000
    110      31.7120      0.00000
    111      32.0620      0.00000
    112      32.4821      0.00000
    113      32.4991      0.00000
    114      32.6024      0.00000
    115      32.7314      0.00000
    116      32.7843      0.00000
    117      33.1024      0.00000
    118      33.3720      0.00000
    119      33.4478      0.00000
    120      33.5305      0.00000
    121      33.6753      0.00000
    122      34.1733      0.00000
    123      34.1778      0.00000
    124      34.5014      0.00000
    125      34.7060      0.00000
    126      35.7830      0.00000
    127      35.9422      0.00000
    128      36.2497      0.00000
    129      36.6589      0.00000
    130      36.7983      0.00000
    131      36.8902      0.00000
    132      37.0182      0.00000
    133      37.3416      0.00000
    134      37.3787      0.00000
    135      37.5494      0.00000
    136      37.9998      0.00000
    137      38.3180      0.00000
    138      38.4324      0.00000
    139      38.4693      0.00000
    140      38.5883      0.00000
    141      39.0507      0.00000
    142      39.1131      0.00000
    143      39.2177      0.00000
    144      39.3960      0.00000
    145      39.5948      0.00000
    146      39.7833      0.00000
    147      39.8348      0.00000
    148      40.2087      0.00000
    149      40.3459      0.00000
    150      40.4588      0.00000
    151      40.4623      0.00000
    152      40.5804      0.00000
    153      41.1019      0.00000
    154      41.2279      0.00000
    155      41.4954      0.00000
    156      41.7327      0.00000
    157      42.3001      0.00000
    158      42.4153      0.00000
    159      42.8811      0.00000
    160      43.1118      0.00000
    161      43.2946      0.00000
    162      43.5397      0.00000
    163      43.5893      0.00000
    164      43.9967      0.00000
    165      44.3080      0.00000
    166      45.1702      0.00000
    167      45.8726      0.00000
    168      46.0320      0.00000
    169      46.2888      0.00000
    170      46.3814      0.00000
    171      47.0371      0.00000
    172      47.3920      0.00000
    173      47.4719      0.00000
    174      47.6727      0.00000
    175      47.6845      0.00000
    176      47.8460      0.00000
    177      47.9941      0.00000
    178      48.2715      0.00000
    179      48.4233      0.00000
    180      48.5984      0.00000
    181      48.7375      0.00000
    182      49.2116      0.00000
    183      49.5780      0.00000
    184      49.8735      0.00000
[...]
   11.080509    3.824395    3.824395    1.892085   -0.000000    0.000000   -0.000000
   11.634534    1.897640    1.897640    1.467851   -0.000000    0.000000    0.000000
   12.188560    0.980419    0.980419    1.111804   -0.000000   -0.000000    0.000000
   12.742585    0.151623    0.151623    1.240057    0.000000    0.000000    0.000000
   13.296611    0.306036    0.306036    0.780646   -0.000000   -0.000000    0.000000
   13.850636    0.283778    0.283778   -0.189482    0.000000   -0.000000   -0.000000
   14.404662   -0.107198   -0.107198    0.073331    0.000000    0.000000   -0.000000
   14.958687    0.049143    0.049143    0.189549    0.000000    0.000000    0.000000
   15.512713    0.188706    0.188707    0.273112    0.000000    0.000000   -0.000000
   16.066738    0.077004    0.077005    0.463580   -0.000000   -0.000000    0.000000
   16.620764    0.157536    0.157536    0.577896    0.000000    0.000000    0.000000
   17.174789    0.200846    0.200846    0.738350    0.000000    0.000000   -0.000000
   17.728814    0.179254    0.179254    0.864955    0.000000    0.000000    0.000000
   18.282840    0.322929    0.322929    0.903682    0.000000   -0.000000    0.000000
   18.836865    0.254643    0.254643    0.629075    0.000000   -0.000000    0.000000
   19.390891    0.457445    0.457445    0.819276    0.000000   -0.000000    0.000000
   19.944916    0.488957    0.488957    0.897374    0.000000   -0.000000   -0.000000
   20.498942    0.570170    0.570170    0.917630   -0.000000   -0.000000    0.000000
   21.052967    0.431338    0.431338    0.929383   -0.000000    0.000000   -0.000000
   21.606993    0.497828    0.497828    1.035436    0.000000   -0.000000    0.000000
   22.161018    0.518670    0.518670    1.132330    0.000000    0.000000   -0.000000
   22.715044    0.564179    0.564179    1.207385    0.000000   -0.000000   -0.000000
   23.269069    0.553532    0.553532    0.691660    0.000000    0.000000   -0.000000
   23.823094    0.606487    0.606487    0.859088    0.000000    0.000000   -0.000000
   24.377120    0.671533    0.671533    0.681411    0.000000   -0.000000   -0.000000
   24.931145    0.656298    0.656299    0.688744    0.000000   -0.000000    0.000000
   25.485171    0.627848    0.627848    0.771772    0.000000   -0.000000   -0.000000
   26.039196    0.652680    0.652680    0.820590    0.000000    0.000000   -0.000000
   26.593222    0.673822    0.673822    0.717019    0.000000   -0.000000   -0.000000
   27.147247    0.690445    0.690445    0.761819    0.000000    0.000000    0.000000
   27.701273    0.725844    0.725844    0.597627    0.000000   -0.000000   -0.000000
   28.255298    0.743448    0.743448    0.687124    0.000000    0.000000   -0.000000
   28.809323    0.749779    0.749779    0.740028    0.000000    0.000000   -0.000000
   29.363349    0.753017    0.753017    0.794800    0.000000   -0.000000   -0.000000
   29.917374    0.759870    0.759870    0.821699    0.000000    0.000000   -0.000000
   30.471400    0.753674    0.753674    0.788318    0.000000   -0.000000    0.000000
   31.025425    0.751750    0.751750    0.816416    0.000000   -0.000000   -0.000000
   31.579451    0.791590    0.791590    0.811847    0.000000   -0.000000    0.000000
   32.133476    0.794483    0.794483    0.751160    0.000000    0.000000    0.000000
   32.687502    0.785650    0.785650    0.783740    0.000000    0.000000   -0.000000
   33.241527    0.785292    0.785292    0.810145    0.000000   -0.000000    0.000000
   33.795553    0.804771    0.804771    0.821787    0.000000    0.000000   -0.000000
   34.349578    0.825920    0.825920    0.819247    0.000000    0.000000   -0.000000
   34.903603    0.813119    0.813119    0.828286    0.000000    0.000000    0.000000
   35.457629    0.814922    0.814922    0.869772    0.000000   -0.000000    0.000000
   36.011654    0.826226    0.826226    0.879170    0.000000   -0.000000   -0.000000
   36.565680    0.845797    0.845797    0.916305    0.000000   -0.000000    0.000000
   37.119705    0.836115    0.836115    0.860940    0.000000   -0.000000    0.000000
   37.673731    0.840617    0.840617    0.833337    0.000000    0.000000    0.000000
   38.227756    0.852779    0.852779    0.842677    0.000000   -0.000000   -0.000000
   38.781782    0.859951    0.859951    0.840658    0.000000   -0.000000   -0.000000
   39.335807    0.866973    0.866973    0.842307    0.000000    0.000000   -0.000000
   39.889833    0.869716    0.869716    0.833989    0.000000   -0.000000    0.000000
   40.443858    0.877770    0.877770    0.850755    0.000000    0.000000    0.000000
   40.997883    0.875910    0.875910    0.871162    0.000000   -0.000000    0.000000
   41.551909    0.879070    0.879070    0.857665    0.000000    0.000000    0.000000
   42.105934    0.884167    0.884167    0.879299    0.000000    0.000000    0.000000
   42.659960    0.887394    0.887394    0.873946    0.000000   -0.000000    0.000000
   43.213985    0.892960    0.892960    0.874237    0.000000   -0.000000    0.000000
   43.768011    0.893378    0.893378    0.859253    0.000000   -0.000000   -0.000000
   44.322036    0.898837    0.898837    0.880269    0.000000   -0.000000    0.000000
   44.876062    0.900105    0.900105    0.884024    0.000000    0.000000   -0.000000
   45.430087    0.904191    0.904191    0.874626    0.000000    0.000000    0.000000
   45.984112    0.903212    0.903212    0.887852    0.000000    0.000000   -0.000000
   46.538138    0.905202    0.905202    0.896284    0.000000   -0.000000    0.000000
   47.092163    0.909197    0.909197    0.873854    0.000000   -0.000000   -0.000000
   47.646189    0.907064    0.907064    0.887093    0.000000    0.000000    0.000000
   48.200214    0.913584    0.913584    0.892187    0.000000    0.000000    0.000000
   48.754240    0.912853    0.912853    0.900316    0.000000    0.000000    0.000000
   49.308265    0.915331    0.915331    0.908810    0.000000    0.000000    0.000000
   49.862291    0.917114    0.917114    0.913392    0.000000   -0.000000   -0.000000
   50.416316    0.918848    0.918848    0.918811    0.000000   -0.000000    0.000000
   50.970342    0.920630    0.920630    0.922556    0.000000    0.000000   -0.000000
   51.524367    0.921639    0.921639    0.922207    0.000000    0.000000   -0.000000
   52.078392    0.923374    0.923374    0.920708    0.000000   -0.000000    0.000000
   52.632418    0.924203    0.924203    0.929060    0.000000   -0.000000   -0.000000
   53.186443    0.925080    0.925080    0.925933    0.000000   -0.000000    0.000000
   53.740469    0.927185    0.927186    0.932079    0.000000   -0.000000   -0.000000
   54.294494    0.926651    0.926651    0.937974    0.000000    0.000000   -0.000000
   54.848520    0.930488    0.930488    0.942556    0.000000   -0.000000   -0.000000
   55.402545    0.929022    0.929022    0.931076    0.000000   -0.000000   -0.000000
   55.956571    0.930398    0.930398    0.923826    0.000000    0.000000   -0.000000
   56.510596    0.928998    0.928998    0.929855    0.000000    0.000000    0.000000
   57.064622    0.933450    0.933450    0.929329    0.000000    0.000000   -0.000000
   57.618647    0.935890    0.935890    0.925413    0.000000   -0.000000    0.000000
   58.172672    0.937026    0.937026    0.924882    0.000000    0.000000    0.000000
   58.726698    0.935684    0.935685    0.929146    0.000000   -0.000000    0.000000
   59.280723    0.937605    0.937605    0.925274    0.000000    0.000000   -0.000000
   59.834749    0.941401    0.941401    0.932630    0.000000    0.000000   -0.000000
   60.388774    0.938539    0.938539    0.935018    0.000000    0.000000   -0.000000
   60.942800    0.937934    0.937934    0.934834    0.000000   -0.000000   -0.000000
   61.496825    0.941248    0.941248    0.932972    0.000000   -0.000000    0.000000
   62.050851    0.941647    0.941647    0.933537    0.000000   -0.000000   -0.000000
   62.604876    0.944463    0.944463    0.936793    0.000000   -0.000000    0.000000
   63.158901    0.944930    0.944930    0.937646    0.000000    0.000000    0.000000
   63.712927    0.944881    0.944881    0.939262    0.000000    0.000000    0.000000
   64.266952    0.945632    0.945632    0.941151    0.000000    0.000000    0.000000
   64.820978    0.945344    0.945344    0.940930    0.000000    0.000000   -0.000000
   65.375003    0.946662    0.946662    0.941276    0.000000    0.000000    0.000000
   65.929029    0.947175    0.947175    0.943737    0.000000    0.000000   -0.000000
   66.483054    0.948414    0.948414    0.945435    0.000000   -0.000000    0.000000
   67.037080    0.948746    0.948746    0.949125    0.000000    0.000000    0.000000
   67.591105    0.949178    0.949178    0.949928    0.000000    0.000000    0.000000
   68.145131    0.948998    0.948998    0.951805    0.000000    0.000000    0.000000
   68.699156    0.951842    0.951842    0.952233    0.000000   -0.000000   -0.000000
   69.253181    0.953157    0.953157    0.953263    0.000000    0.000000   -0.000000
   69.807207    0.953554    0.953554    0.956087    0.000000    0.000000    0.000000
   70.361232    0.955006    0.955006    0.957012    0.000000    0.000000    0.000000
   70.915258    0.955272    0.955272    0.955334    0.000000   -0.000000    0.000000
   71.469283    0.956358    0.956358    0.958489    0.000000   -0.000000   -0.000000
   72.023309    0.957516    0.957516    0.958632    0.000000    0.000000   -0.000000
   72.577334    0.956928    0.956928    0.960863    0.000000   -0.000000    0.000000
   73.131360    0.958229    0.958229    0.958751    0.000000   -0.000000   -0.000000
   73.685385    0.958288    0.958288    0.960931    0.000000   -0.000000   -0.000000
   74.239411    0.959656    0.959656    0.961930    0.000000   -0.000000    0.000000
   74.793436    0.959943    0.959943    0.962006    0.000000    0.000000   -0.000000
   75.347461    0.961024    0.961024    0.962124    0.000000    0.000000    0.000000
   75.901487    0.960629    0.960629    0.963154    0.000000    0.000000   -0.000000
   76.455512    0.961194    0.961194    0.961811    0.000000   -0.000000   -0.000000
   77.009538    0.961595    0.961595    0.962087    0.000000    0.000000   -0.000000
   77.563563    0.962821    0.962821    0.965447    0.000000    0.000000   -0.000000
   78.117589    0.963781    0.963781    0.962383    0.000000   -0.000000   -0.000000
   78.671614    0.963943    0.963943    0.960666    0.000000    0.000000    0.000000
   79.225640    0.964539    0.964539    0.961089    0.000000   -0.000000   -0.000000
   79.779665    0.965387    0.965387    0.961203    0.000000   -0.000000    0.000000
   80.333690    0.966028    0.966028    0.961563    0.000000   -0.000000   -0.000000
   80.887716    0.966342    0.966342    0.963981    0.000000   -0.000000   -0.000000
   81.441741    0.966373    0.966373    0.964406    0.000000   -0.000000   -0.000000
   81.995767    0.967574    0.967575    0.965426    0.000000   -0.000000   -0.000000
   82.549792    0.967585    0.967585    0.963837    0.000000   -0.000000    0.000000
   83.103818    0.968055    0.968055    0.964624    0.000000   -0.000000    0.000000
   83.657843    0.968598    0.968598    0.964798    0.000000   -0.000000    0.000000
   84.211869    0.969288    0.969288    0.965044    0.000000   -0.000000   -0.000000
   84.765894    0.969612    0.969612    0.966472    0.000000   -0.000000    0.000000
   85.319920    0.970251    0.970251    0.966006    0.000000   -0.000000   -0.000000
   85.873945    0.970511    0.970511    0.966423    0.000000   -0.000000   -0.000000
   86.427970    0.970868    0.970868    0.967053    0.000000    0.000000   -0.000000
   86.981996    0.971347    0.971347    0.967546    0.000000   -0.000000   -0.000000
   87.536021    0.971471    0.971471    0.968416    0.000000   -0.000000    0.000000
   88.090047    0.971747    0.971747    0.968155    0.000000    0.000000    0.000000
   88.644072    0.972002    0.972002    0.968949    0.000000   -0.000000    0.000000
   89.198098    0.972077    0.972077    0.970233    0.000000   -0.000000    0.000000
   89.752123    0.972689    0.972689    0.969935    0.000000   -0.000000   -0.000000
   90.306149    0.972619    0.972619    0.970634    0.000000   -0.000000   -0.000000
   90.860174    0.972462    0.972462    0.971843    0.000000    0.000000    0.000000
   91.414200    0.972369    0.972369    0.971928    0.000000   -0.000000   -0.000000
   91.968225    0.972810    0.972810    0.972668    0.000000    0.000000    0.000000
   92.522250    0.973506    0.973506    0.972574    0.000000    0.000000    0.000000
   93.076276    0.972988    0.972988    0.973276    0.000000    0.000000   -0.000000
   93.630301    0.972971    0.972971    0.973336    0.000000   -0.000000   -0.000000
   94.184327    0.973022    0.973022    0.973839    0.000000    0.000000   -0.000000
   94.738352    0.973583    0.973583    0.973832    0.000000    0.000000   -0.000000
   95.292378    0.974056    0.974056    0.974101    0.000000    0.000000   -0.000000
   95.846403    0.974087    0.974087    0.974508    0.000000   -0.000000   -0.000000
   96.400429    0.974760    0.974760    0.974524    0.000000   -0.000000    0.000000
   96.954454    0.974959    0.974959    0.975158    0.000000   -0.000000    0.000000
   97.508479    0.975574    0.975574    0.975130    0.000000    0.000000    0.000000
   98.062505    0.975580    0.975580    0.975250    0.000000    0.000000    0.000000
   98.616530    0.975953    0.975953    0.976072    0.000000   -0.000000   -0.000000
   99.170556    0.976429    0.976429    0.976543    0.000000   -0.000000   -0.000000
   99.724581    0.976784    0.976784    0.976441    0.000000   -0.000000   -0.000000
  100.278607    0.977177    0.977177    0.976647    0.000000    0.000000   -0.000000
  100.832632    0.977336    0.977336    0.976958    0.000000   -0.000000   -0.000000
  101.386658    0.977484    0.977484    0.977093    0.000000   -0.000000   -0.000000
  101.940683    0.977836    0.977836    0.977645    0.000000   -0.000000   -0.000000
  102.494709    0.978228    0.978228    0.977588    0.000000   -0.000000   -0.000000
  103.048734    0.978484    0.978484    0.977936    0.000000   -0.000000    0.000000
  103.602759    0.978859    0.978859    0.978736    0.000000   -0.000000   -0.000000
  104.156785    0.979158    0.979158    0.977966    0.000000   -0.000000   -0.000000
  104.710810    0.979277    0.979277    0.978156    0.000000    0.000000   -0.000000
  105.264836    0.979460    0.979460    0.978854    0.000000    0.000000    0.000000
  105.818861    0.979794    0.979795    0.978915    0.000000    0.000000   -0.000000
  106.372887    0.980108    0.980108    0.979338    0.000000   -0.000000   -0.000000
  106.926912    0.980334    0.980334    0.979672    0.000000    0.000000   -0.000000
  107.480938    0.980596    0.980596    0.979769    0.000000    0.000000    0.000000
  108.034963    0.980870    0.980870    0.980034    0.000000    0.000000   -0.000000
  108.588989    0.981148    0.981148    0.980446    0.000000    0.000000    0.000000
  109.143014    0.981343    0.981343    0.980841    0.000000   -0.000000   -0.000000
  109.697039    0.981566    0.981566    0.980947    0.000000    0.000000   -0.000000
  110.251065    0.981790    0.981790    0.981248    0.000000   -0.000000   -0.000000
  110.805090    0.982018    0.982018    0.981485    0.000000   -0.000000   -0.000000
  111.359116    0.982237    0.982237    0.981749    0.000000   -0.000000   -0.000000
  111.913141    0.982446    0.982446    0.981990    0.000000   -0.000000   -0.000000
  112.467167    0.982650    0.982650    0.982220    0.000000   -0.000000   -0.000000
  113.021192    0.982848    0.982848    0.982442    0.000000   -0.000000   -0.000000
  113.575218    0.983042    0.983042    0.982657    0.000000   -0.000000   -0.000000
  114.129243    0.983231    0.983231    0.982865    0.000000   -0.000000   -0.000000
  114.683268    0.983416    0.983416    0.983068    0.000000   -0.000000   -0.000000
  115.237294    0.983597    0.983597    0.983266    0.000000   -0.000000   -0.000000
  115.791319    0.983775    0.983775    0.983459    0.000000   -0.000000   -0.000000
  116.345345    0.983949    0.983949    0.983647    0.000000   -0.000000   -0.000000
  116.899370    0.984120    0.984120    0.983831    0.000000   -0.000000   -0.000000
  117.453396    0.984288    0.984288    0.984012    0.000000   -0.000000   -0.000000
  118.007421    0.984452    0.984452    0.984188    0.000000   -0.000000   -0.000000
  118.561447    0.984614    0.984614    0.984361    0.000000   -0.000000   -0.000000
  119.115472    0.984772    0.984772    0.984530    0.000000   -0.000000   -0.000000
  119.669498    0.984928    0.984928    0.984696    0.000000   -0.000000   -0.000000
  120.223523    0.985081    0.985081    0.984859    0.000000   -0.000000   -0.000000
  120.777548    0.985232    0.985232    0.985019    0.000000   -0.000000   -0.000000
  121.331574    0.985380    0.985380    0.985176    0.000000   -0.000000   -0.000000
  121.885599    0.985525    0.985525    0.985330    0.000000   -0.000000   -0.000000
  122.439625    0.985668    0.985668    0.985481    0.000000   -0.000000   -0.000000
  122.993650    0.985809    0.985809    0.985629    0.000000   -0.000000   -0.000000
  123.547676    0.985948    0.985948    0.985775    0.000000   -0.000000   -0.000000
  124.101701    0.986084    0.986084    0.985919    0.000000   -0.000000   -0.000000
  124.655727    0.986218    0.986218    0.986060    0.000000   -0.000000   -0.000000
  125.209752    0.986350    0.986350    0.986198    0.000000   -0.000000   -0.000000
  125.763778    0.986480    0.986480    0.986335    0.000000   -0.000000   -0.000000
  126.317803    0.986608    0.986608    0.986469    0.000000   -0.000000   -0.000000
  126.871828    0.986734    0.986734    0.986600    0.000000   -0.000000   -0.000000
  127.425854    0.986858    0.986858    0.986730    0.000000   -0.000000   -0.000000
  127.979879    0.986981    0.986981    0.986858    0.000000   -0.000000   -0.000000
  128.533905    0.987101    0.987101    0.986984    0.000000   -0.000000   -0.000000
  129.087930    0.987220    0.987220    0.987107    0.000000   -0.000000   -0.000000
  129.641956    0.987337    0.987337    0.987229    0.000000   -0.000000   -0.000000
  130.195981    0.987452    0.987452    0.987349    0.000000   -0.000000   -0.000000
  130.750007    0.987566    0.987566    0.987467    0.000000   -0.000000   -0.000000
  131.304032    0.987678    0.987678    0.987583    0.000000   -0.000000   -0.000000
  131.858057    0.987788    0.987788    0.987698    0.000000   -0.000000   -0.000000
  132.412083    0.987897    0.987897    0.987811    0.000000   -0.000000   -0.000000
 
 The outermost node in the dielectric function lies at epsilon=  16.5


--------------------------------------------------------------------------------------------------------


    OPTICS:  cpu time    1.3368: real time    1.4157
    4ORBIT:  cpu time    0.0000: real time    0.0000

 total amount of memory used by VASP MPI-rank0    96129. kBytes
=======================================================================

   base      :      30000. kBytes
   nonl-proj :      11089. kBytes
   fftplans  :       2090. kBytes
   grid      :       6068. kBytes
   one-center:         24. kBytes
   wavefun   :      46858. kBytes
 
  
  
 General timing and accounting informations for this job:
 ========================================================
  
                  Total CPU time used (sec):     8148.975
                            User time (sec):     8134.625
                          System time (sec):       14.350
                         Elapsed time (sec):     8153.436
  
                   Maximum memory used (kb):      916504.
                   Average memory used (kb):           0.
  
                          Minor page faults:      8057569
                          Major page faults:            0
                 Voluntary context switches:        14571
