<?xml version="1.0" encoding="ISO-8859-1"?>
<modeling>
 <generator>
  <i name="program" type="string">vasp </i>
  <i name="version" type="string">5.4.4.18Apr17-6-g9f103f2a35  </i>
  <i name="subversion" type="string">(build Mar 30 2023 15:39:25) complex            parallel </i>
  <i name="platform" type="string">LinuxIFC </i>
  <i name="date" type="string">2023 06 28 </i>
  <i name="time" type="string">01:57:11 </i>
 </generator>
 <incar>
  <i type="string" name="SYSTEM"> BC3-optical</i>
  <i type="int" name="ISTART">     1</i>
  <i type="string" name="PREC">accurate</i>
  <i type="string" name="ALGO"> Exact</i>
  <i type="int" name="ICHARG">     2</i>
  <i name="EDIFF">      0.00000001</i>
  <i name="ENCUT">    450.00000000</i>
  <i type="int" name="NBANDS">   416</i>
  <i type="int" name="NEDOS">  2400</i>
  <i type="logical" name="LREAL"> F  </i>
  <i type="int" name="ISMEAR">     0</i>
  <i name="SIGMA">      0.01000000</i>
  <i type="int" name="NWRITE">     3</i>
  <i type="logical" name="LOPTICS"> T  </i>
  <v type="int" name="KPOINT_BSE">    -1     0     0     0</v>
  <i name="CSHIFT">      0.10000000</i>
  <i name="CSHIFT">      0.10000000</i>
 </incar>
 <structure name="primitive_cell" >
  <crystal>
   <varray name="basis" >
    <v>       4.48084843       2.58701885       0.00000000 </v>
    <v>      -4.48084843       2.58701885       0.00000000 </v>
    <v>       0.00000000       0.00000000       8.52022140 </v>
   </varray>
   <i name="volume">    197.53348383 </i>
   <varray name="rec_basis" >
    <v>       0.11158601       0.19327265       0.00000000 </v>
    <v>      -0.11158601       0.19327265       0.00000000 </v>
    <v>       0.00000000       0.00000000       0.11736784 </v>
   </varray>
  </crystal>
  <varray name="positions" >
   <v>       0.33333300      -0.33333400       0.25000000 </v>
   <v>       0.15869124       0.31738348       0.25000000 </v>
   <v>      -0.31738448      -0.15869224       0.25000000 </v>
   <v>       0.15869124      -0.15869224       0.25000000 </v>
   <v>      -0.15869224       0.15869124       0.25000000 </v>
   <v>       0.31738348       0.15869124       0.25000000 </v>
   <v>      -0.15869224      -0.31738448       0.25000000 </v>
   <v>      -0.33333400       0.33333300       0.25000000 </v>
  </varray>
 </structure>
 <varray name="primitive_index" >
  <v type="int" >        1 </v>
  <v type="int" >        3 </v>
  <v type="int" >        7 </v>
  <v type="int" >        5 </v>
  <v type="int" >        6 </v>
  <v type="int" >        4 </v>
  <v type="int" >        8 </v>
  <v type="int" >        2 </v>
 </varray>
 <kpoints>
  <generation param="Gamma">
   <v type="int" name="divisions">      12       12        1 </v>
   <v name="usershift">      0.00000000       0.00000000       0.00000000 </v>
   <v name="genvec1">      0.08333333       0.00000000       0.00000000 </v>
   <v name="genvec2">      0.00000000       0.08333333       0.00000000 </v>
   <v name="genvec3">      0.00000000       0.00000000       1.00000000 </v>
   <v name="shift">      0.00000000       0.00000000       0.00000000 </v>
  </generation>
  <varray name="kpointlist" >
   <v>       0.00000000       0.00000000       0.00000000 </v>
   <v>       0.08333333       0.00000000       0.00000000 </v>
   <v>       0.16666667       0.00000000       0.00000000 </v>
   <v>       0.25000000      -0.00000000       0.00000000 </v>
   <v>       0.33333333      -0.00000000       0.00000000 </v>
   <v>       0.41666667       0.00000000       0.00000000 </v>
   <v>       0.50000000      -0.00000000       0.00000000 </v>
   <v>       0.08333333       0.08333333       0.00000000 </v>
   <v>       0.16666667       0.08333333       0.00000000 </v>
   <v>       0.25000000       0.08333333       0.00000000 </v>
   <v>       0.33333333       0.08333333       0.00000000 </v>
   <v>       0.41666667       0.08333333       0.00000000 </v>
   <v>       0.16666667       0.16666667       0.00000000 </v>
   <v>       0.25000000       0.16666667       0.00000000 </v>
   <v>       0.33333333       0.16666667       0.00000000 </v>
   <v>       0.41666667       0.16666667       0.00000000 </v>
   <v>       0.25000000       0.25000000       0.00000000 </v>
   <v>       0.33333333       0.25000000       0.00000000 </v>
   <v>       0.33333333       0.33333333       0.00000000 </v>
  </varray>
  <varray name="weights" >
   <v>       0.00694444 </v>
   <v>       0.04166667 </v>
   <v>       0.04166667 </v>
   <v>       0.04166667 </v>
   <v>       0.04166667 </v>
   <v>       0.04166667 </v>
   <v>       0.02083333 </v>
   <v>       0.04166667 </v>
   <v>       0.08333333 </v>
   <v>       0.08333333 </v>
   <v>       0.08333333 </v>
   <v>       0.08333333 </v>
   <v>       0.04166667 </v>
   <v>       0.08333333 </v>
   <v>       0.08333333 </v>
   <v>       0.04166667 </v>
   <v>       0.04166667 </v>
   <v>       0.08333333 </v>
   <v>       0.01388889 </v>
  </varray>
 </kpoints>
 <parameters>
  <separator name="general" >
   <i type="string" name="SYSTEM">BC3-optical</i>
   <i type="logical" name="LCOMPAT"> F  </i>
  </separator>
  <separator name="electronic" >
   <i type="string" name="PREC">accura</i>
   <i name="ENMAX">    450.00000000</i>
   <i name="ENAUG">    644.87300000</i>
   <i name="EDIFF">      0.00000001</i>
   <i type="int" name="IALGO">    90</i>
   <i type="int" name="IWAVPR">    10</i>
   <i type="int" name="NBANDS">   420</i>
   <i name="NELECT">     30.00000000</i>
   <i type="int" name="TURBO">     0</i>
   <i type="int" name="IRESTART">     0</i>
   <i type="int" name="NREBOOT">     0</i>
   <i type="int" name="NMIN">     0</i>
   <i name="EREF">      0.00000000</i>
   <separator name="electronic smearing" >
    <i type="int" name="ISMEAR">     0</i>
    <i name="SIGMA">      0.01000000</i>
    <i name="KSPACING">      0.50000000</i>
    <i type="logical" name="KGAMMA"> T  </i>
   </separator>
   <separator name="electronic projectors" >
    <i type="logical" name="LREAL"> F  </i>
    <v name="ROPT">      0.00000000      0.00000000</v>
    <i type="int" name="LMAXPAW">  -100</i>
    <i type="int" name="LMAXMIX">     2</i>
    <i type="logical" name="NLSPLINE"> F  </i>
   </separator>
   <separator name="electronic startup" >
    <i type="int" name="ISTART">     1</i>
    <i type="int" name="ICHARG">     2</i>
    <i type="int" name="INIWAV">     1</i>
   </separator>
   <separator name="electronic spin" >
    <i type="int" name="ISPIN">     1</i>
    <i type="logical" name="LNONCOLLINEAR"> F  </i>
    <v name="MAGMOM">      1.00000000      1.00000000      1.00000000      1.00000000      1.00000000      1.00000000      1.00000000      1.00000000</v>
    <i name="NUPDOWN">     -1.00000000</i>
    <i type="logical" name="LSORBIT"> F  </i>
    <v name="SAXIS">      0.00000000      0.00000000      1.00000000</v>
    <i type="logical" name="LSPIRAL"> F  </i>
    <v name="QSPIRAL">      0.00000000      0.00000000      0.00000000</v>
    <i type="logical" name="LZEROZ"> F  </i>
   </separator>
   <separator name="electronic exchange-correlation" >
    <i type="logical" name="LASPH"> F  </i>
    <i type="logical" name="LMETAGGA"> F  </i>
   </separator>
   <separator name="electronic convergence" >
    <i type="int" name="NELM">    60</i>
    <i type="int" name="NELMDL">     0</i>
    <i type="int" name="NELMIN">     2</i>
    <i name="ENINI">    450.00000000</i>
    <separator name="electronic convergence detail" >
     <i type="logical" name="LDIAG"> T  </i>
     <i type="logical" name="LSUBROT"> F  </i>
     <i name="WEIMIN">      0.00000000</i>
     <i name="EBREAK">      0.00000000</i>
     <i name="DEPER">      0.30000000</i>
     <i type="int" name="NRMM">     4</i>
     <i name="TIME">      0.40000000</i>
    </separator>
   </separator>
   <separator name="electronic mixer" >
    <i name="AMIX">      0.40000000</i>
    <i name="BMIX">      1.00000000</i>
    <i name="AMIN">      0.10000000</i>
    <i name="AMIX_MAG">      1.60000000</i>
    <i name="BMIX_MAG">      1.00000000</i>
    <separator name="electronic mixer details" >
     <i type="int" name="IMIX">     4</i>
     <i type="logical" name="MIXFIRST"> F  </i>
     <i type="int" name="MAXMIX">   -45</i>
     <i name="WC">    100.00000000</i>
     <i type="int" name="INIMIX">     1</i>
     <i type="int" name="MIXPRE">     1</i>
     <i type="int" name="MREMOVE">     5</i>
    </separator>
   </separator>
   <separator name="electronic dipolcorrection" >
    <i type="logical" name="LDIPOL"> F  </i>
    <i type="logical" name="LMONO"> F  </i>
    <i type="int" name="IDIPOL">     0</i>
    <i name="EPSILON">      1.00000000</i>
    <v name="DIPOL">   -100.00000000   -100.00000000   -100.00000000</v>
    <i name="EFIELD">      0.00000000</i>
   </separator>
  </separator>
  <separator name="grids" >
   <i type="int" name="NGX">    36</i>
   <i type="int" name="NGY">    36</i>
   <i type="int" name="NGZ">    60</i>
   <i type="int" name="NGXF">    72</i>
   <i type="int" name="NGYF">    72</i>
   <i type="int" name="NGZF">   120</i>
   <i type="logical" name="ADDGRID"> F  </i>
  </separator>
  <separator name="ionic" >
   <i type="int" name="NSW">     0</i>
   <i type="int" name="IBRION">    -1</i>
   <i type="int" name="MDALGO">     0</i>
   <i type="int" name="ISIF">     2</i>
   <i name="PSTRESS">      0.00000000</i>
   <i name="EDIFFG">      0.00000010</i>
   <i type="int" name="NFREE">     0</i>
   <i name="POTIM">      0.50000000</i>
   <i name="SMASS">     -3.00000000</i>
   <i name="SCALEE">      1.00000000</i>
  </separator>
  <separator name="ionic md" >
   <i name="TEBEG">      0.00010000</i>
   <i name="TEEND">      0.00010000</i>
   <i type="int" name="NBLOCK">     1</i>
   <i type="int" name="KBLOCK">     1</i>
   <i type="int" name="NPACO">   256</i>
   <i name="APACO">     16.00000000</i>
  </separator>
  <separator name="symmetry" >
   <i type="int" name="ISYM">     2</i>
   <i name="SYMPREC">      0.00001000</i>
  </separator>
  <separator name="dos" >
   <i type="int" name="LORBIT">     0</i>
   <v name="RWIGS">     -1.00000000     -1.00000000</v>
   <i type="int" name="NEDOS">  2400</i>
   <i name="EMIN">     10.00000000</i>
   <i name="EMAX">    -10.00000000</i>
   <i name="EFERMI">      0.00000000</i>
  </separator>
  <separator name="writing" >
   <i type="int" name="NWRITE">     3</i>
   <i type="logical" name="LWAVE"> T  </i>
   <i type="logical" name="LDOWNSAMPLE"> F  </i>
   <i type="logical" name="LCHARG"> T  </i>
   <i type="logical" name="LPARD"> F  </i>
   <i type="logical" name="LVTOT"> F  </i>
   <i type="logical" name="LVHAR"> F  </i>
   <i type="logical" name="LELF"> F  </i>
   <i type="logical" name="LOPTICS"> T  </i>
   <v name="STM">      0.00000000      0.00000000      0.00000000      0.00000000      0.00000000      0.00000000      0.00000000</v>
  </separator>
  <separator name="performance" >
   <i type="int" name="NPAR">    12</i>
   <i type="int" name="NSIM">     4</i>
   <i type="int" name="NBLK">    -1</i>
   <i type="logical" name="LPLANE"> T  </i>
   <i type="logical" name="LSCALAPACK"> T  </i>
   <i type="logical" name="LSCAAWARE"> T  </i>
   <i type="logical" name="LSCALU"> F  </i>
   <i type="logical" name="LASYNC"> F  </i>
   <i type="logical" name="LORBITALREAL"> F  </i>
  </separator>
  <separator name="miscellaneous" >
   <i type="int" name="IDIOT">     3</i>
   <i type="int" name="ISPECIAL">     0</i>
   <i type="logical" name="LMUSIC"> F  </i>
   <v name="POMASS">     10.81100000     12.01100000</v>
   <v name="DARWINR">      0.00000000      0.00000000</v>
   <v name="DARWINV">      1.00000000      1.00000000</v>
   <i type="logical" name="LCORR"> T  </i>
  </separator>
  <i type="logical" name="GGA_COMPAT"> T  </i>
  <i type="logical" name="LBERRY"> F  </i>
  <i type="int" name="ICORELEVEL">     0</i>
  <i type="logical" name="LDAU"> F  </i>
  <i type="int" name="I_CONSTRAINED_M">     0</i>
  <separator name="electronic exchange-correlation" >
   <i type="string" name="GGA">--</i>
   <i type="int" name="VOSKOWN">     0</i>
   <i type="logical" name="LHFCALC"> F  </i>
   <i type="string" name="PRECFOCK"></i>
   <i type="logical" name="LSYMGRAD"> F  </i>
   <i type="logical" name="LHFONE"> F  </i>
   <i type="logical" name="LRHFCALC"> F  </i>
   <i type="logical" name="LTHOMAS"> F  </i>
   <i type="logical" name="LMODELHF"> F  </i>
   <i name="ENCUT4O">     -1.00000000</i>
   <i type="int" name="EXXOEP">     0</i>
   <i type="int" name="FOURORBIT">     0</i>
   <i name="AEXX">      0.00000000</i>
   <i name="HFALPHA">      0.00000000</i>
   <i name="MCALPHA">      0.00000000</i>
   <i name="ALDAX">      1.00000000</i>
   <i name="AGGAX">      1.00000000</i>
   <i name="ALDAC">      1.00000000</i>
   <i name="AGGAC">      1.00000000</i>
   <i type="int" name="NKREDX">     1</i>
   <i type="int" name="NKREDY">     1</i>
   <i type="int" name="NKREDZ">     1</i>
   <i type="logical" name="SHIFTRED"> F  </i>
   <i type="logical" name="ODDONLY"> F  </i>
   <i type="logical" name="EVENONLY"> F  </i>
   <i type="int" name="LMAXFOCK">     0</i>
   <i type="int" name="NMAXFOCKAE">     0</i>
   <i type="logical" name="LFOCKAEDFT"> F  </i>
   <i name="HFSCREEN">      0.00000000</i>
   <i name="HFSCREENC">      0.00000000</i>
   <i type="int" name="NBANDSGWLOW">     0</i>
  </separator>
  <separator name="vdW DFT" >
   <i type="logical" name="LUSE_VDW"> F  </i>
   <i name="Zab_VDW">     -0.84910000</i>
   <i name="PARAM1">      0.12340000</i>
   <i name="PARAM2">      1.00000000</i>
   <i name="PARAM3">      0.00000000</i>
  </separator>
  <separator name="model GW" >
   <i type="int" name="MODEL_GW">     0</i>
   <i name="MODEL_EPS0">     14.81501129</i>
   <i name="MODEL_ALPHA">      1.00000000</i>
  </separator>
  <separator name="linear response parameters" >
   <i type="logical" name="LEPSILON"> F  </i>
   <i type="logical" name="LRPA"> F  </i>
   <i type="logical" name="LNABLA"> F  </i>
   <i type="logical" name="LVEL"> F  </i>
   <i type="int" name="KINTER">     0</i>
   <i name="CSHIFT">      0.10000000</i>
   <i name="OMEGAMAX">     -1.00000000</i>
   <i name="DEG_THRESHOLD">      0.00200000</i>
   <i name="RTIME">     -0.10000000</i>
   <i name="WPLASMAI">      0.00000000</i>
   <v name="DFIELD">      0.00000000      0.00000000      0.00000000</v>
   <v name="WPLASMA">      0.00000000      0.00000000      0.00000000      0.00000000      0.00000000      0.00000000      0.00000000      0.00000000      0.00000000</v>
  </separator>
  <separator name="orbital magnetization" >
   <i type="logical" name="NUCIND"> F  </i>
   <v name="MAGPOS">      0.00000000      0.00000000      0.00000000</v>
   <i type="logical" name="LNICSALL"> T  </i>
   <i type="logical" name="ORBITALMAG"> F  </i>
   <i type="logical" name="LMAGBLOCH"> F  </i>
   <i type="logical" name="LCHIMAG"> F  </i>
   <i type="logical" name="LGAUGE"> T  </i>
   <i type="int" name="MAGATOM">     0</i>
   <v name="MAGDIPOL">      0.00000000      0.00000000      0.00000000</v>
   <v name="AVECCONST">      0.00000000      0.00000000      0.00000000</v>
  </separator>
  <separator name="response functions" >
   <i type="logical" name="LADDER"> F  </i>
   <i type="logical" name="LRPAFORCE"> F  </i>
   <i type="logical" name="LFXC"> F  </i>
   <i type="logical" name="LHARTREE"> T  </i>
   <i type="int" name="IBSE">     0</i>
   <v type="int" name="KPOINT">    -1     0     0     0</v>
   <i type="logical" name="LTCTE"> F  </i>
   <i type="logical" name="LTETE"> F  </i>
   <i type="logical" name="LTRIPLET"> F  </i>
   <i type="logical" name="LFXCEPS"> F  </i>
   <i type="logical" name="LFXHEG"> F  </i>
   <i type="int" name="NATURALO">     2</i>
   <i type="logical" name="L2ORDER"> F  </i>
   <i type="logical" name="LMP2LT"> F  </i>
   <i type="logical" name="LUSEW"> F  </i>
   <i name="ENCUTGW">     -2.00000000</i>
   <i name="ENCUTGWSOFT">     -2.00000000</i>
   <i name="ENCUTLF">     -1.00000000</i>
   <i type="int" name="LMAXMP2">    -1</i>
   <i name="SCISSOR">      0.00000000</i>
   <i type="int" name="NOMEGA">     0</i>
   <i type="int" name="NOMEGAR">     0</i>
   <i type="int" name="NBANDSGW">    -1</i>
   <i type="int" name="NBANDSO">    -1</i>
   <i type="int" name="NBANDSV">    -1</i>
   <i type="int" name="NELM">     1</i>
   <i type="int" name="NELMHF">     1</i>
   <i type="int" name="DIM">     3</i>
   <i type="int" name="ANTIRES">     0</i>
   <i name="OMEGAMAX">    -30.00000000</i>
   <i name="OMEGAMIN">    -30.00000000</i>
   <i name="OMEGATL">   -200.00000000</i>
   <i type="int" name="OMEGAGRID">   140</i>
   <i name="CSHIFT">      0.10000000</i>
   <i type="logical" name="SELFENERGY"> F  </i>
   <i type="logical" name="LSPECTRAL"> F  </i>
   <i type="logical" name="LSPECTRALGW"> F  </i>
   <i type="logical" name="LSINGLES"> F  </i>
   <i type="logical" name="LFERMIGW"> F  </i>
   <i type="logical" name="ODDONLYGW"> F  </i>
   <i type="logical" name="EVENONLYGW"> F  </i>
   <i type="int" name="NKREDLFX">     1</i>
   <i type="int" name="NKREDLFY">     1</i>
   <i type="int" name="NKREDLFZ">     1</i>
   <i type="int" name="MAXMEM">  2800</i>
   <i type="int" name="TELESCOPE">     0</i>
   <i type="int" name="TAUPAR">     1</i>
   <i type="int" name="OMEGAPAR">    -1</i>
   <i name="LAMBDA">      1.00000000</i>
  </separator>
  <separator name="External order field" >
   <i name="OFIELD_KAPPA">      0.00000000</i>
   <v name="OFIELD_K">      0.00000000      0.00000000      0.00000000</v>
   <i name="OFIELD_Q6_NEAR">      0.00000000</i>
   <i name="OFIELD_Q6_FAR">      0.00000000</i>
   <i name="OFIELD_A">      0.00000000</i>
  </separator>
 </parameters>
 <atominfo>
  <atoms>       8 </atoms>
  <types>       2 </types>
  <array name="atoms" >
   <dimension dim="1">ion</dimension>
   <field type="string">element</field>
   <field type="int">atomtype</field>
   <set>
    <rc><c>B </c><c>   1</c></rc>
    <rc><c>B </c><c>   1</c></rc>
    <rc><c>C </c><c>   2</c></rc>
    <rc><c>C </c><c>   2</c></rc>
    <rc><c>C </c><c>   2</c></rc>
    <rc><c>C </c><c>   2</c></rc>
    <rc><c>C </c><c>   2</c></rc>
    <rc><c>C </c><c>   2</c></rc>
   </set>
  </array>
  <array name="atomtypes" >
   <dimension dim="1">type</dimension>
   <field type="int">atomspertype</field>
   <field type="string">element</field>
   <field>mass</field>
   <field>valence</field>
   <field type="string">pseudopotential</field>
   <set>
    <rc><c>   2</c><c>B </c><c>     10.81100000</c><c>      3.00000000</c><c>  PAW_PBE B 06Sep2000                   </c></rc>
    <rc><c>   6</c><c>C </c><c>     12.01100000</c><c>      4.00000000</c><c>  PAW_PBE C 08Apr2002                   </c></rc>
   </set>
  </array>
 </atominfo>
 <structure name="initialpos" >
  <crystal>
   <varray name="basis" >
    <v>       4.48084843       2.58701885       0.00000000 </v>
    <v>      -4.48084843       2.58701885       0.00000000 </v>
    <v>       0.00000000       0.00000000       8.52022140 </v>
   </varray>
   <i name="volume">    197.53348383 </i>
   <varray name="rec_basis" >
    <v>       0.11158601       0.19327265       0.00000000 </v>
    <v>      -0.11158601       0.19327265       0.00000000 </v>
    <v>       0.00000000       0.00000000       0.11736784 </v>
   </varray>
  </crystal>
  <varray name="positions" >
   <v>       0.33333300       0.66666600       0.25000000 </v>
   <v>       0.66666600       0.33333300       0.25000000 </v>
   <v>       0.15869124       0.31738348       0.25000000 </v>
   <v>       0.31738348       0.15869124       0.25000000 </v>
   <v>       0.15869124       0.84130776       0.25000000 </v>
   <v>       0.84130776       0.15869124       0.25000000 </v>
   <v>       0.68261552       0.84130776       0.25000000 </v>
   <v>       0.84130776       0.68261552       0.25000000 </v>
  </varray>
 </structure>
 <calculation>
  <scstep>
   <time name="diag">  559.94  559.95</time>
   <time name="total">  560.04  560.05</time>
   <energy>
    <i name="alphaZ">     25.67921176 </i>
    <i name="ewald">    700.27145080 </i>
    <i name="hartreedc">  -1524.76618073 </i>
    <i name="XCdc">     91.14273073 </i>
    <i name="pawpsdc">    738.13200929 </i>
    <i name="pawaedc">   -739.83780425 </i>
    <i name="eentropy">     -0.00000000 </i>
    <i name="bandstr">   -389.26594481 </i>
    <i name="atom">   1025.20389953 </i>
    <i name="e_fr_energy">    -73.44062769 </i>
    <i name="e_wo_entrp">    -73.44062769 </i>
    <i name="e_0_energy">    -73.44062769 </i>
   </energy>
  </scstep>
  <scstep>
   <time name="diag">  586.88  586.89</time>
   <time name="total">  587.00  587.01</time>
   <energy>
    <i name="e_fr_energy">    -68.99901163 </i>
    <i name="e_wo_entrp">    -68.99901163 </i>
    <i name="e_0_energy">    -68.99901163 </i>
   </energy>
  </scstep>
  <scstep>
   <time name="diag">  572.25  572.26</time>
   <time name="total">  572.36  572.37</time>
   <energy>
    <i name="e_fr_energy">    -67.35394036 </i>
    <i name="e_wo_entrp">    -67.35394036 </i>
    <i name="e_0_energy">    -67.35394036 </i>
   </energy>
  </scstep>
  <scstep>
   <time name="diag">  580.30  580.31</time>
   <time name="total">  580.42  580.43</time>
   <energy>
    <i name="e_fr_energy">    -67.24757337 </i>
    <i name="e_wo_entrp">    -67.24757337 </i>
    <i name="e_0_energy">    -67.24757337 </i>
   </energy>
  </scstep>
  <scstep>
   <time name="diag">  601.25  601.26</time>
   <time name="total">  601.37  601.38</time>
   <energy>
    <i name="e_fr_energy">    -67.22049319 </i>
    <i name="e_wo_entrp">    -67.22049319 </i>
    <i name="e_0_energy">    -67.22049319 </i>
   </energy>
  </scstep>
  <scstep>
   <time name="diag">  589.69  589.70</time>
   <time name="total">  589.80  589.82</time>
   <energy>
    <i name="e_fr_energy">    -67.21907962 </i>
    <i name="e_wo_entrp">    -67.21907962 </i>
    <i name="e_0_energy">    -67.21907962 </i>
   </energy>
  </scstep>
  <scstep>
   <time name="diag">  582.22  582.23</time>
   <time name="total">  582.34  582.35</time>
   <energy>
    <i name="e_fr_energy">    -67.22295241 </i>
    <i name="e_wo_entrp">    -67.22295241 </i>
    <i name="e_0_energy">    -67.22295241 </i>
   </energy>
  </scstep>
  <scstep>
   <time name="diag">  583.37  583.38</time>
   <time name="total">  583.49  583.50</time>
   <energy>
    <i name="e_fr_energy">    -67.22702477 </i>
    <i name="e_wo_entrp">    -67.22702477 </i>
    <i name="e_0_energy">    -67.22702477 </i>
   </energy>
  </scstep>
  <scstep>
   <time name="diag">  578.82  578.83</time>
   <time name="total">  578.93  578.94</time>
   <energy>
    <i name="e_fr_energy">    -67.22770203 </i>
    <i name="e_wo_entrp">    -67.22770203 </i>
    <i name="e_0_energy">    -67.22770203 </i>
   </energy>
  </scstep>
  <scstep>
   <time name="diag">  581.00  581.01</time>
   <time name="total">  581.12  581.13</time>
   <energy>
    <i name="e_fr_energy">    -67.22771724 </i>
    <i name="e_wo_entrp">    -67.22771724 </i>
    <i name="e_0_energy">    -67.22771724 </i>
   </energy>
  </scstep>
  <scstep>
   <time name="diag">  581.36  581.37</time>
   <time name="total">  581.48  581.49</time>
   <energy>
    <i name="e_fr_energy">    -67.22773009 </i>
    <i name="e_wo_entrp">    -67.22773009 </i>
    <i name="e_0_energy">    -67.22773009 </i>
   </energy>
  </scstep>
  <scstep>
   <time name="diag">  579.14  579.15</time>
   <time name="total">  579.26  579.27</time>
   <energy>
    <i name="e_fr_energy">    -67.22773016 </i>
    <i name="e_wo_entrp">    -67.22773016 </i>
    <i name="e_0_energy">    -67.22773016 </i>
   </energy>
  </scstep>
  <scstep>
   <time name="diag">  578.60  578.61</time>
   <time name="total">  578.71  578.72</time>
   <energy>
    <i name="e_fr_energy">    -67.22773024 </i>
    <i name="e_wo_entrp">    -67.22773024 </i>
    <i name="e_0_energy">    -67.22773024 </i>
   </energy>
  </scstep>
  <scstep>
   <time name="diag">  578.25  578.26</time>
   <time name="total">  578.31  578.32</time>
   <energy>
    <i name="alphaZ">     25.67921176 </i>
    <i name="ewald">    700.27145080 </i>
    <i name="hartreedc">  -1646.75291199 </i>
    <i name="XCdc">     96.02426133 </i>
    <i name="pawpsdc">   2894.38113018 </i>
    <i name="pawaedc">  -2896.90834127 </i>
    <i name="eentropy">     -0.00000000 </i>
    <i name="bandstr">   -265.12643058 </i>
    <i name="atom">   1025.20389953 </i>
    <i name="e_fr_energy">    -67.22773025 </i>
    <i name="e_wo_entrp">    -67.22773025 </i>
    <i name="e_0_energy">    -67.22773025 </i>
   </energy>
  </scstep>
  <structure>
   <crystal>
    <varray name="basis" >
     <v>       4.48084843       2.58701885       0.00000000 </v>
     <v>      -4.48084843       2.58701885       0.00000000 </v>
     <v>       0.00000000       0.00000000       8.52022140 </v>
    </varray>
    <i name="volume">    197.53348383 </i>
    <varray name="rec_basis" >
     <v>       0.11158601       0.19327265       0.00000000 </v>
     <v>      -0.11158601       0.19327265       0.00000000 </v>
     <v>       0.00000000       0.00000000       0.11736784 </v>
    </varray>
   </crystal>
   <varray name="positions" >
    <v>       0.33333300       0.66666600       0.25000000 </v>
    <v>       0.66666600       0.33333300       0.25000000 </v>
    <v>       0.15869124       0.31738348       0.25000000 </v>
    <v>       0.31738348       0.15869124       0.25000000 </v>
    <v>       0.15869124       0.84130776       0.25000000 </v>
    <v>       0.84130776       0.15869124       0.25000000 </v>
    <v>       0.68261552       0.84130776       0.25000000 </v>
    <v>       0.84130776       0.68261552       0.25000000 </v>
   </varray>
  </structure>
  <varray name="forces" >
   <v>       0.00000000      -0.00000000       0.00000000 </v>
   <v>      -0.00000000      -0.00000000       0.00000000 </v>
   <v>      -0.00064694       0.00112054       0.00000000 </v>
   <v>       0.00064694       0.00112054       0.00000000 </v>
   <v>       0.00129389      -0.00000000      -0.00000000 </v>
   <v>      -0.00129389      -0.00000000       0.00000000 </v>
   <v>      -0.00064694      -0.00112054      -0.00000000 </v>
   <v>       0.00064694      -0.00112054      -0.00000000 </v>
  </varray>
  <varray name="stress" >
   <v>      -0.53277498       0.00000000       0.00000000 </v>
   <v>       0.00000000      -0.53277490       0.00000000 </v>
   <v>       0.00000000      -0.00000000      -1.27118547 </v>
  </varray>
  <energy>
   <i name="e_fr_energy">    -67.22773025 </i>
   <i name="e_wo_entrp">    -67.22773025 </i>
   <i name="e_0_energy">     -0.00000000 </i>
  </energy>
  <time name="totalsc"> 8140.65 8143.04</time>
  <eigenvalues>
   <array>
    <dimension dim="1">band</dimension>
    <dimension dim="2">kpoint</dimension>
    <dimension dim="3">spin</dimension>
    <field>eigene</field>
    <field>occ</field>
    <set>
     <set comment="spin 1">
      <set comment="kpoint 1">
       <r>  -18.5403    1.0000 </r>
       <r>  -14.6488    1.0000 </r>
       <r>  -14.6488    1.0000 </r>
       <r>  -12.2992    1.0000 </r>
       <r>  -12.2992    1.0000 </r>
       <r>  -11.2307    1.0000 </r>
       <r>   -9.9135    1.0000 </r>
       <r>   -7.3452    1.0000 </r>
       <r>   -7.1249    1.0000 </r>
       <r>   -4.9710    1.0000 </r>
       <r>   -4.9710    1.0000 </r>
       <r>   -3.1493    1.0000 </r>
       <r>   -3.1492    1.0000 </r>
       <r>   -2.4667    1.0000 </r>
       <r>   -2.4666    1.0000 </r>
       <r>   -0.6315    0.0000 </r>
       <r>    1.1011    0.0000 </r>
       <r>    1.1012    0.0000 </r>
       <r>    1.7906    0.0000 </r>
       <r>    1.9217    0.0000 </r>
       <r>    4.5207    0.0000 </r>
       <r>    5.9130    0.0000 </r>
       <r>    6.3151    0.0000 </r>
       <r>    6.3151    0.0000 </r>
       <r>    7.6726    0.0000 </r>
       <r>    8.0796    0.0000 </r>
       <r>    8.0797    0.0000 </r>
       <r>    8.9955    0.0000 </r>
       <r>    9.1419    0.0000 </r>
       <r>    9.1419    0.0000 </r>
       <r>    9.2976    0.0000 </r>
       <r>    9.2976    0.0000 </r>
       <r>    9.5160    0.0000 </r>
       <r>   10.3273    0.0000 </r>
       <r>   10.6836    0.0000 </r>
       <r>   10.6836    0.0000 </r>
       <r>   11.3540    0.0000 </r>
       <r>   11.3541    0.0000 </r>
       <r>   11.3922    0.0000 </r>
       <r>   11.3995    0.0000 </r>
       <r>   11.9841    0.0000 </r>
       <r>   13.0008    0.0000 </r>
       <r>   13.0008    0.0000 </r>
       <r>   13.0285    0.0000 </r>
       <r>   13.1319    0.0000 </r>
       <r>   13.1319    0.0000 </r>
       <r>   13.1825    0.0000 </r>
       <r>   13.5279    0.0000 </r>
       <r>   15.6135    0.0000 </r>
       <r>   15.8008    0.0000 </r>
       <r>   15.8008    0.0000 </r>
       <r>   16.4913    0.0000 </r>
       <r>   18.2923    0.0000 </r>
       <r>   18.2923    0.0000 </r>
       <r>   18.8601    0.0000 </r>
       <r>   18.8602    0.0000 </r>
       <r>   19.1473    0.0000 </r>
       <r>   19.2290    0.0000 </r>
       <r>   19.5333    0.0000 </r>
       <r>   19.5333    0.0000 </r>
       <r>   19.7217    0.0000 </r>
       <r>   19.9888    0.0000 </r>
       <r>   19.9888    0.0000 </r>
       <r>   20.0167    0.0000 </r>
       <r>   20.4546    0.0000 </r>
       <r>   21.0813    0.0000 </r>
       <r>   21.3027    0.0000 </r>
       <r>   21.3027    0.0000 </r>
       <r>   22.8793    0.0000 </r>
       <r>   23.2968    0.0000 </r>
       <r>   23.2968    0.0000 </r>
       <r>   23.4397    0.0000 </r>
       <r>   23.4397    0.0000 </r>
       <r>   23.5738    0.0000 </r>
       <r>   24.0936    0.0000 </r>
       <r>   24.0936    0.0000 </r>
       <r>   24.4126    0.0000 </r>
       <r>   24.4126    0.0000 </r>
       <r>   24.5372    0.0000 </r>
       <r>   24.6374    0.0000 </r>
       <r>   24.8763    0.0000 </r>
       <r>   25.2174    0.0000 </r>
       <r>   25.2174    0.0000 </r>
       <r>   26.6516    0.0000 </r>
       <r>   26.6516    0.0000 </r>
       <r>   26.7538    0.0000 </r>
       <r>   26.7538    0.0000 </r>
       <r>   26.8463    0.0000 </r>
       <r>   27.0341    0.0000 </r>
       <r>   27.1216    0.0000 </r>
       <r>   27.7308    0.0000 </r>
       <r>   27.7308    0.0000 </r>
       <r>   27.7998    0.0000 </r>
       <r>   27.7998    0.0000 </r>
       <r>   27.8401    0.0000 </r>
       <r>   28.2967    0.0000 </r>
       <r>   28.2967    0.0000 </r>
       <r>   28.7936    0.0000 </r>
       <r>   28.7936    0.0000 </r>
       <r>   28.9524    0.0000 </r>
       <r>   29.6489    0.0000 </r>
       <r>   30.2897    0.0000 </r>
       <r>   31.1920    0.0000 </r>
       <r>   31.1920    0.0000 </r>
       <r>   31.4239    0.0000 </r>
       <r>   31.4816    0.0000 </r>
       <r>   31.4816    0.0000 </r>
       <r>   31.8841    0.0000 </r>
       <r>   32.0865    0.0000 </r>
       <r>   32.0865    0.0000 </r>
       <r>   32.4044    0.0000 </r>
       <r>   32.6844    0.0000 </r>
       <r>   33.2983    0.0000 </r>
       <r>   33.2983    0.0000 </r>
       <r>   33.3127    0.0000 </r>
       <r>   33.3127    0.0000 </r>
       <r>   33.4606    0.0000 </r>
       <r>   34.0099    0.0000 </r>
       <r>   34.9816    0.0000 </r>
       <r>   34.9816    0.0000 </r>
       <r>   35.0442    0.0000 </r>
       <r>   35.0442    0.0000 </r>
       <r>   35.2268    0.0000 </r>
       <r>   35.2268    0.0000 </r>
       <r>   35.8334    0.0000 </r>
       <r>   35.8655    0.0000 </r>
       <r>   35.8655    0.0000 </r>
       <r>   36.0454    0.0000 </r>
       <r>   36.6964    0.0000 </r>
       <r>   36.6964    0.0000 </r>
       <r>   37.0546    0.0000 </r>
       <r>   37.3010    0.0000 </r>
       <r>   37.3124    0.0000 </r>
       <r>   37.3124    0.0000 </r>
       <r>   37.3416    0.0000 </r>
       <r>   37.3416    0.0000 </r>
       <r>   37.3663    0.0000 </r>
       <r>   37.4564    0.0000 </r>
       <r>   37.4564    0.0000 </r>
       <r>   37.6595    0.0000 </r>
       <r>   37.8898    0.0000 </r>
       <r>   37.9469    0.0000 </r>
       <r>   38.2105    0.0000 </r>
       <r>   38.2105    0.0000 </r>
       <r>   38.5577    0.0000 </r>
       <r>   38.8474    0.0000 </r>
       <r>   38.8474    0.0000 </r>
       <r>   40.8943    0.0000 </r>
       <r>   42.2089    0.0000 </r>
       <r>   42.2089    0.0000 </r>
       <r>   42.3915    0.0000 </r>
       <r>   43.7541    0.0000 </r>
       <r>   43.7541    0.0000 </r>
       <r>   43.9385    0.0000 </r>
       <r>   43.9385    0.0000 </r>
       <r>   44.3103    0.0000 </r>
       <r>   44.3103    0.0000 </r>
       <r>   44.3566    0.0000 </r>
       <r>   44.4926    0.0000 </r>
       <r>   44.4926    0.0000 </r>
       <r>   44.7977    0.0000 </r>
       <r>   45.3264    0.0000 </r>
       <r>   45.3264    0.0000 </r>
       <r>   45.6092    0.0000 </r>
       <r>   45.6092    0.0000 </r>
       <r>   46.0655    0.0000 </r>
       <r>   46.5987    0.0000 </r>
       <r>   46.8263    0.0000 </r>
       <r>   47.8871    0.0000 </r>
       <r>   47.9682    0.0000 </r>
       <r>   48.7262    0.0000 </r>
       <r>   48.7262    0.0000 </r>
       <r>   48.9385    0.0000 </r>
       <r>   49.0206    0.0000 </r>
       <r>   49.0207    0.0000 </r>
       <r>   49.1895    0.0000 </r>
       <r>   49.3789    0.0000 </r>
       <r>   49.5076    0.0000 </r>
       <r>   49.5077    0.0000 </r>
       <r>   49.7124    0.0000 </r>
       <r>   49.7124    0.0000 </r>
       <r>   50.1370    0.0000 </r>
       <r>   50.3457    0.0000 </r>
       <r>   50.3458    0.0000 </r>
       <r>   50.5718    0.0000 </r>
       <r>   50.6150    0.0000 </r>
       <r>   50.6150    0.0000 </r>
       <r>   51.5785    0.0000 </r>
       <r>   51.5785    0.0000 </r>
       <r>   51.7184    0.0000 </r>
       <r>   52.0203    0.0000 </r>
       <r>   52.4951    0.0000 </r>
       <r>   52.4951    0.0000 </r>
       <r>   52.5049    0.0000 </r>
       <r>   52.5049    0.0000 </r>
       <r>   52.8867    0.0000 </r>
       <r>   53.4918    0.0000 </r>
       <r>   53.4918    0.0000 </r>
       <r>   53.4926    0.0000 </r>
       <r>   53.8300    0.0000 </r>
       <r>   53.8300    0.0000 </r>
       <r>   53.9143    0.0000 </r>
       <r>   54.2916    0.0000 </r>
       <r>   54.3186    0.0000 </r>
       <r>   54.3186    0.0000 </r>
       <r>   54.4694    0.0000 </r>
       <r>   54.4695    0.0000 </r>
       <r>   54.6490    0.0000 </r>
       <r>   54.9433    0.0000 </r>
       <r>   54.9433    0.0000 </r>
       <r>   55.2684    0.0000 </r>
       <r>   55.3383    0.0000 </r>
       <r>   55.6000    0.0000 </r>
       <r>   55.7091    0.0000 </r>
       <r>   55.8562    0.0000 </r>
       <r>   55.8562    0.0000 </r>
       <r>   55.9784    0.0000 </r>
       <r>   55.9785    0.0000 </r>
       <r>   56.0273    0.0000 </r>
       <r>   56.4062    0.0000 </r>
       <r>   56.4062    0.0000 </r>
       <r>   57.0541    0.0000 </r>
       <r>   57.0541    0.0000 </r>
       <r>   57.1684    0.0000 </r>
       <r>   57.1813    0.0000 </r>
       <r>   57.1813    0.0000 </r>
       <r>   57.4345    0.0000 </r>
       <r>   57.4759    0.0000 </r>
       <r>   57.4759    0.0000 </r>
       <r>   57.6909    0.0000 </r>
       <r>   57.6909    0.0000 </r>
       <r>   57.8660    0.0000 </r>
       <r>   57.8786    0.0000 </r>
       <r>   57.9830    0.0000 </r>
       <r>   57.9830    0.0000 </r>
       <r>   58.0113    0.0000 </r>
       <r>   58.0225    0.0000 </r>
       <r>   58.1490    0.0000 </r>
       <r>   58.1490    0.0000 </r>
       <r>   58.1727    0.0000 </r>
       <r>   58.3631    0.0000 </r>
       <r>   58.3631    0.0000 </r>
       <r>   58.3839    0.0000 </r>
       <r>   58.3839    0.0000 </r>
       <r>   58.8988    0.0000 </r>
       <r>   58.8988    0.0000 </r>
       <r>   59.0563    0.0000 </r>
       <r>   59.7119    0.0000 </r>
       <r>   59.7119    0.0000 </r>
       <r>   59.9710    0.0000 </r>
       <r>   60.2200    0.0000 </r>
       <r>   60.6108    0.0000 </r>
       <r>   60.6108    0.0000 </r>
       <r>   60.9781    0.0000 </r>
       <r>   61.1585    0.0000 </r>
       <r>   61.1585    0.0000 </r>
       <r>   62.1187    0.0000 </r>
       <r>   62.1187    0.0000 </r>
       <r>   62.7654    0.0000 </r>
       <r>   63.2527    0.0000 </r>
       <r>   63.6720    0.0000 </r>
       <r>   63.6720    0.0000 </r>
       <r>   65.3916    0.0000 </r>
       <r>   65.3916    0.0000 </r>
       <r>   65.7610    0.0000 </r>
       <r>   65.7610    0.0000 </r>
       <r>   65.9659    0.0000 </r>
       <r>   66.0271    0.0000 </r>
       <r>   66.1788    0.0000 </r>
       <r>   66.1788    0.0000 </r>
       <r>   66.2120    0.0000 </r>
       <r>   66.2537    0.0000 </r>
       <r>   66.3494    0.0000 </r>
       <r>   66.3494    0.0000 </r>
       <r>   66.5925    0.0000 </r>
       <r>   66.7507    0.0000 </r>
       <r>   66.7508    0.0000 </r>
       <r>   66.8896    0.0000 </r>
       <r>   67.0713    0.0000 </r>
       <r>   67.0713    0.0000 </r>
       <r>   67.2113    0.0000 </r>
       <r>   67.2989    0.0000 </r>
       <r>   67.2989    0.0000 </r>
       <r>   67.3851    0.0000 </r>
       <r>   67.6908    0.0000 </r>
       <r>   67.6908    0.0000 </r>
       <r>   68.2115    0.0000 </r>
       <r>   68.2115    0.0000 </r>
       <r>   68.5114    0.0000 </r>
       <r>   68.5114    0.0000 </r>
       <r>   68.6015    0.0000 </r>
       <r>   68.6015    0.0000 </r>
       <r>   68.6157    0.0000 </r>
       <r>   68.6247    0.0000 </r>
       <r>   68.6344    0.0000 </r>
       <r>   68.9972    0.0000 </r>
       <r>   69.2825    0.0000 </r>
       <r>   69.3119    0.0000 </r>
       <r>   69.3119    0.0000 </r>
       <r>   69.4176    0.0000 </r>
       <r>   69.4177    0.0000 </r>
       <r>   69.5744    0.0000 </r>
       <r>   69.9786    0.0000 </r>
       <r>   69.9786    0.0000 </r>
       <r>   70.2573    0.0000 </r>
       <r>   70.7134    0.0000 </r>
       <r>   70.7134    0.0000 </r>
       <r>   71.1024    0.0000 </r>
       <r>   71.2748    0.0000 </r>
       <r>   71.7878    0.0000 </r>
       <r>   72.4061    0.0000 </r>
       <r>   72.4061    0.0000 </r>
       <r>   72.4156    0.0000 </r>
       <r>   72.6734    0.0000 </r>
       <r>   72.7043    0.0000 </r>
       <r>   72.7043    0.0000 </r>
       <r>   72.7429    0.0000 </r>
       <r>   72.7472    0.0000 </r>
       <r>   72.7472    0.0000 </r>
       <r>   73.3727    0.0000 </r>
       <r>   73.3727    0.0000 </r>
       <r>   73.3751    0.0000 </r>
       <r>   73.3751    0.0000 </r>
       <r>   73.4653    0.0000 </r>
       <r>   73.4653    0.0000 </r>
       <r>   73.6715    0.0000 </r>
       <r>   73.9920    0.0000 </r>
       <r>   74.0075    0.0000 </r>
       <r>   74.0075    0.0000 </r>
       <r>   74.4828    0.0000 </r>
       <r>   75.0597    0.0000 </r>
       <r>   75.0597    0.0000 </r>
       <r>   75.1478    0.0000 </r>
       <r>   75.8349    0.0000 </r>
       <r>   76.6256    0.0000 </r>
       <r>   76.6256    0.0000 </r>
       <r>   76.8710    0.0000 </r>
       <r>   77.0277    0.0000 </r>
       <r>   77.5077    0.0000 </r>
       <r>   77.7840    0.0000 </r>
       <r>   77.7840    0.0000 </r>
       <r>   77.8734    0.0000 </r>
       <r>   77.8734    0.0000 </r>
       <r>   77.9113    0.0000 </r>
       <r>   77.9113    0.0000 </r>
       <r>   78.0212    0.0000 </r>
       <r>   78.3211    0.0000 </r>
       <r>   78.3211    0.0000 </r>
       <r>   78.6119    0.0000 </r>
       <r>   78.6120    0.0000 </r>
       <r>   78.6572    0.0000 </r>
       <r>   78.9605    0.0000 </r>
       <r>   78.9606    0.0000 </r>
       <r>   79.3666    0.0000 </r>
       <r>   79.4510    0.0000 </r>
       <r>   79.4510    0.0000 </r>
       <r>   79.9352    0.0000 </r>
       <r>   79.9352    0.0000 </r>
       <r>   80.0121    0.0000 </r>
       <r>   80.0897    0.0000 </r>
       <r>   80.7824    0.0000 </r>
       <r>   80.7825    0.0000 </r>
       <r>   81.0321    0.0000 </r>
       <r>   81.0321    0.0000 </r>
       <r>   81.1526    0.0000 </r>
       <r>   81.3520    0.0000 </r>
       <r>   81.3520    0.0000 </r>
       <r>   81.3784    0.0000 </r>
       <r>   81.4070    0.0000 </r>
       <r>   81.5901    0.0000 </r>
       <r>   81.8722    0.0000 </r>
       <r>   81.9254    0.0000 </r>
       <r>   81.9254    0.0000 </r>
       <r>   81.9366    0.0000 </r>
       <r>   81.9366    0.0000 </r>
       <r>   82.3570    0.0000 </r>
       <r>   82.6418    0.0000 </r>
       <r>   82.6418    0.0000 </r>
       <r>   82.6462    0.0000 </r>
       <r>   82.7812    0.0000 </r>
       <r>   82.7880    0.0000 </r>
       <r>   82.9769    0.0000 </r>
       <r>   83.0263    0.0000 </r>
       <r>   83.0263    0.0000 </r>
       <r>   83.0285    0.0000 </r>
       <r>   83.0285    0.0000 </r>
       <r>   84.1896    0.0000 </r>
       <r>   84.1896    0.0000 </r>
       <r>   84.2833    0.0000 </r>
       <r>   84.2833    0.0000 </r>
       <r>   84.9984    0.0000 </r>
       <r>   84.9984    0.0000 </r>
       <r>   85.6300    0.0000 </r>
       <r>   85.6549    0.0000 </r>
       <r>   85.6549    0.0000 </r>
       <r>   86.5747    0.0000 </r>
       <r>   86.8479    0.0000 </r>
       <r>   86.8479    0.0000 </r>
       <r>   87.6634    0.0000 </r>
       <r>   88.4822    0.0000 </r>
       <r>   88.4822    0.0000 </r>
       <r>   89.1168    0.0000 </r>
       <r>   89.7621    0.0000 </r>
       <r>   89.7621    0.0000 </r>
       <r>   90.2041    0.0000 </r>
       <r>   90.2041    0.0000 </r>
       <r>   90.3667    0.0000 </r>
       <r>   91.1495    0.0000 </r>
       <r>   91.7127    0.0000 </r>
       <r>   91.7128    0.0000 </r>
       <r>   91.7477    0.0000 </r>
       <r>   91.7477    0.0000 </r>
       <r>   91.7833    0.0000 </r>
       <r>   92.0133    0.0000 </r>
       <r>   92.0926    0.0000 </r>
       <r>   92.1247    0.0000 </r>
       <r>   92.1961    0.0000 </r>
       <r>   92.1961    0.0000 </r>
       <r>   92.2186    0.0000 </r>
       <r>   92.2186    0.0000 </r>
      </set>
      <set comment="kpoint 2">
       <r>  -18.5132    1.0000 </r>
       <r>  -14.7809    1.0000 </r>
       <r>  -14.6912    1.0000 </r>
       <r>  -12.3384    1.0000 </r>
       <r>  -12.2008    1.0000 </r>
       <r>  -11.0961    1.0000 </r>
       <r>   -9.7531    1.0000 </r>
       <r>   -7.3040    1.0000 </r>
       <r>   -7.1822    1.0000 </r>
       <r>   -5.0944    1.0000 </r>
       <r>   -4.9934    1.0000 </r>
       <r>   -3.2737    1.0000 </r>
       <r>   -3.1697    1.0000 </r>
       <r>   -2.6092    1.0000 </r>
       <r>   -2.5354    1.0000 </r>
       <r>   -0.8361    0.0000 </r>
       <r>    1.1605    0.0000 </r>
       <r>    1.4116    0.0000 </r>
       <r>    1.9153    0.0000 </r>
       <r>    1.9734    0.0000 </r>
       <r>    4.5728    0.0000 </r>
       <r>    5.9692    0.0000 </r>
       <r>    6.3866    0.0000 </r>
       <r>    6.4781    0.0000 </r>
       <r>    7.6627    0.0000 </r>
       <r>    8.0377    0.0000 </r>
       <r>    8.2336    0.0000 </r>
       <r>    8.2352    0.0000 </r>
       <r>    8.6808    0.0000 </r>
       <r>    8.7555    0.0000 </r>
       <r>    9.8480    0.0000 </r>
       <r>    9.8619    0.0000 </r>
       <r>    9.9124    0.0000 </r>
       <r>   10.3759    0.0000 </r>
       <r>   10.3995    0.0000 </r>
       <r>   10.4193    0.0000 </r>
       <r>   10.9077    0.0000 </r>
       <r>   11.4137    0.0000 </r>
       <r>   11.6687    0.0000 </r>
       <r>   12.0448    0.0000 </r>
       <r>   12.1516    0.0000 </r>
       <r>   12.3345    0.0000 </r>
       <r>   12.5608    0.0000 </r>
       <r>   12.8381    0.0000 </r>
       <r>   13.0972    0.0000 </r>
       <r>   13.6279    0.0000 </r>
       <r>   13.8001    0.0000 </r>
       <r>   14.2603    0.0000 </r>
       <r>   15.5623    0.0000 </r>
       <r>   15.6614    0.0000 </r>
       <r>   15.7181    0.0000 </r>
       <r>   16.2792    0.0000 </r>
       <r>   18.0211    0.0000 </r>
       <r>   18.0716    0.0000 </r>
       <r>   18.6452    0.0000 </r>
       <r>   18.9834    0.0000 </r>
       <r>   18.9928    0.0000 </r>
       <r>   19.3961    0.0000 </r>
       <r>   19.4430    0.0000 </r>
       <r>   19.8594    0.0000 </r>
       <r>   19.9227    0.0000 </r>
       <r>   19.9355    0.0000 </r>
       <r>   20.0222    0.0000 </r>
       <r>   20.0695    0.0000 </r>
       <r>   20.4469    0.0000 </r>
       <r>   20.9480    0.0000 </r>
       <r>   21.1306    0.0000 </r>
       <r>   21.1701    0.0000 </r>
       <r>   22.3006    0.0000 </r>
       <r>   22.5129    0.0000 </r>
       <r>   23.0923    0.0000 </r>
       <r>   23.5592    0.0000 </r>
       <r>   23.5744    0.0000 </r>
       <r>   23.6015    0.0000 </r>
       <r>   23.8165    0.0000 </r>
       <r>   24.0248    0.0000 </r>
       <r>   24.2674    0.0000 </r>
       <r>   24.5217    0.0000 </r>
       <r>   24.8306    0.0000 </r>
       <r>   24.9676    0.0000 </r>
       <r>   25.0475    0.0000 </r>
       <r>   25.5521    0.0000 </r>
       <r>   25.6964    0.0000 </r>
       <r>   25.7980    0.0000 </r>
       <r>   25.9189    0.0000 </r>
       <r>   26.1275    0.0000 </r>
       <r>   26.3973    0.0000 </r>
       <r>   26.9094    0.0000 </r>
       <r>   26.9234    0.0000 </r>
       <r>   27.0815    0.0000 </r>
       <r>   27.0849    0.0000 </r>
       <r>   27.5813    0.0000 </r>
       <r>   27.8918    0.0000 </r>
       <r>   28.1065    0.0000 </r>
       <r>   28.6632    0.0000 </r>
       <r>   28.9184    0.0000 </r>
       <r>   29.0466    0.0000 </r>
       <r>   29.1763    0.0000 </r>
       <r>   29.2646    0.0000 </r>
       <r>   29.6366    0.0000 </r>
       <r>   29.6478    0.0000 </r>
       <r>   30.1213    0.0000 </r>
       <r>   30.1818    0.0000 </r>
       <r>   30.7678    0.0000 </r>
       <r>   31.1259    0.0000 </r>
       <r>   31.8749    0.0000 </r>
       <r>   31.9108    0.0000 </r>
       <r>   32.0148    0.0000 </r>
       <r>   32.0886    0.0000 </r>
       <r>   32.5461    0.0000 </r>
       <r>   32.6542    0.0000 </r>
       <r>   32.9444    0.0000 </r>
       <r>   33.0816    0.0000 </r>
       <r>   33.3384    0.0000 </r>
       <r>   33.4640    0.0000 </r>
       <r>   33.5848    0.0000 </r>
       <r>   33.6087    0.0000 </r>
       <r>   33.8445    0.0000 </r>
       <r>   34.0075    0.0000 </r>
       <r>   34.0686    0.0000 </r>
       <r>   34.1281    0.0000 </r>
       <r>   34.2291    0.0000 </r>
       <r>   35.1281    0.0000 </r>
       <r>   35.9146    0.0000 </r>
       <r>   35.9610    0.0000 </r>
       <r>   35.9882    0.0000 </r>
       <r>   36.2332    0.0000 </r>
       <r>   36.3840    0.0000 </r>
       <r>   36.5942    0.0000 </r>
       <r>   36.7596    0.0000 </r>
       <r>   36.8647    0.0000 </r>
       <r>   37.0219    0.0000 </r>
       <r>   37.1188    0.0000 </r>
       <r>   37.2090    0.0000 </r>
       <r>   37.4568    0.0000 </r>
       <r>   37.5348    0.0000 </r>
       <r>   37.8830    0.0000 </r>
       <r>   37.9740    0.0000 </r>
       <r>   38.0606    0.0000 </r>
       <r>   38.1707    0.0000 </r>
       <r>   38.3342    0.0000 </r>
       <r>   38.4488    0.0000 </r>
       <r>   38.9582    0.0000 </r>
       <r>   39.0151    0.0000 </r>
       <r>   39.1512    0.0000 </r>
       <r>   39.7411    0.0000 </r>
       <r>   39.8913    0.0000 </r>
       <r>   40.4036    0.0000 </r>
       <r>   41.6591    0.0000 </r>
       <r>   41.7874    0.0000 </r>
       <r>   42.0183    0.0000 </r>
       <r>   43.0529    0.0000 </r>
       <r>   43.1371    0.0000 </r>
       <r>   43.1853    0.0000 </r>
       <r>   43.3711    0.0000 </r>
       <r>   43.6680    0.0000 </r>
       <r>   43.9100    0.0000 </r>
       <r>   44.3356    0.0000 </r>
       <r>   44.4581    0.0000 </r>
       <r>   44.7940    0.0000 </r>
       <r>   44.8728    0.0000 </r>
       <r>   45.0487    0.0000 </r>
       <r>   45.2335    0.0000 </r>
       <r>   46.1032    0.0000 </r>
       <r>   46.2269    0.0000 </r>
       <r>   46.3651    0.0000 </r>
       <r>   46.4216    0.0000 </r>
       <r>   46.8963    0.0000 </r>
       <r>   47.1013    0.0000 </r>
       <r>   48.0085    0.0000 </r>
       <r>   48.2044    0.0000 </r>
       <r>   48.2685    0.0000 </r>
       <r>   48.4867    0.0000 </r>
       <r>   48.4867    0.0000 </r>
       <r>   48.6077    0.0000 </r>
       <r>   49.4193    0.0000 </r>
       <r>   49.4674    0.0000 </r>
       <r>   49.4813    0.0000 </r>
       <r>   49.4971    0.0000 </r>
       <r>   50.1891    0.0000 </r>
       <r>   50.2489    0.0000 </r>
       <r>   50.3481    0.0000 </r>
       <r>   50.4411    0.0000 </r>
       <r>   50.7495    0.0000 </r>
       <r>   50.7703    0.0000 </r>
       <r>   51.0252    0.0000 </r>
       <r>   51.0836    0.0000 </r>
       <r>   51.2201    0.0000 </r>
       <r>   51.2372    0.0000 </r>
       <r>   51.3233    0.0000 </r>
       <r>   52.0790    0.0000 </r>
       <r>   52.1310    0.0000 </r>
       <r>   52.3383    0.0000 </r>
       <r>   52.5341    0.0000 </r>
       <r>   52.6621    0.0000 </r>
       <r>   52.7051    0.0000 </r>
       <r>   52.7968    0.0000 </r>
       <r>   52.9839    0.0000 </r>
       <r>   53.1591    0.0000 </r>
       <r>   53.4564    0.0000 </r>
       <r>   53.6301    0.0000 </r>
       <r>   53.6776    0.0000 </r>
       <r>   53.8575    0.0000 </r>
       <r>   54.1638    0.0000 </r>
       <r>   54.4158    0.0000 </r>
       <r>   54.5037    0.0000 </r>
       <r>   54.6902    0.0000 </r>
       <r>   54.7543    0.0000 </r>
       <r>   54.8263    0.0000 </r>
       <r>   54.8421    0.0000 </r>
       <r>   54.8679    0.0000 </r>
       <r>   55.0431    0.0000 </r>
       <r>   55.0736    0.0000 </r>
       <r>   55.3025    0.0000 </r>
       <r>   55.4662    0.0000 </r>
       <r>   55.5311    0.0000 </r>
       <r>   55.6692    0.0000 </r>
       <r>   56.1756    0.0000 </r>
       <r>   56.1912    0.0000 </r>
       <r>   56.2449    0.0000 </r>
       <r>   56.3750    0.0000 </r>
       <r>   56.4639    0.0000 </r>
       <r>   56.5464    0.0000 </r>
       <r>   56.5747    0.0000 </r>
       <r>   56.8251    0.0000 </r>
       <r>   56.8859    0.0000 </r>
       <r>   57.0189    0.0000 </r>
       <r>   57.0577    0.0000 </r>
       <r>   57.1652    0.0000 </r>
       <r>   57.2095    0.0000 </r>
       <r>   57.4579    0.0000 </r>
       <r>   57.6391    0.0000 </r>
       <r>   57.6791    0.0000 </r>
       <r>   57.7261    0.0000 </r>
       <r>   58.0939    0.0000 </r>
       <r>   58.1463    0.0000 </r>
       <r>   58.2340    0.0000 </r>
       <r>   58.6067    0.0000 </r>
       <r>   58.7254    0.0000 </r>
       <r>   58.7317    0.0000 </r>
       <r>   59.1755    0.0000 </r>
       <r>   59.4085    0.0000 </r>
       <r>   59.5037    0.0000 </r>
       <r>   60.0199    0.0000 </r>
       <r>   60.0306    0.0000 </r>
       <r>   60.2943    0.0000 </r>
       <r>   60.3322    0.0000 </r>
       <r>   60.4211    0.0000 </r>
       <r>   60.5725    0.0000 </r>
       <r>   60.5849    0.0000 </r>
       <r>   60.7327    0.0000 </r>
       <r>   61.0217    0.0000 </r>
       <r>   61.0341    0.0000 </r>
       <r>   61.3763    0.0000 </r>
       <r>   61.5507    0.0000 </r>
       <r>   61.6702    0.0000 </r>
       <r>   62.1374    0.0000 </r>
       <r>   62.2604    0.0000 </r>
       <r>   62.7760    0.0000 </r>
       <r>   63.5386    0.0000 </r>
       <r>   63.8106    0.0000 </r>
       <r>   64.0655    0.0000 </r>
       <r>   64.1332    0.0000 </r>
       <r>   64.1393    0.0000 </r>
       <r>   64.1615    0.0000 </r>
       <r>   64.2112    0.0000 </r>
       <r>   64.4574    0.0000 </r>
       <r>   65.0710    0.0000 </r>
       <r>   65.2099    0.0000 </r>
       <r>   65.3051    0.0000 </r>
       <r>   65.6032    0.0000 </r>
       <r>   65.6439    0.0000 </r>
       <r>   65.8292    0.0000 </r>
       <r>   66.3752    0.0000 </r>
       <r>   66.4268    0.0000 </r>
       <r>   66.4561    0.0000 </r>
       <r>   66.6966    0.0000 </r>
       <r>   66.7485    0.0000 </r>
       <r>   66.8655    0.0000 </r>
       <r>   66.8769    0.0000 </r>
       <r>   67.1461    0.0000 </r>
       <r>   67.1550    0.0000 </r>
       <r>   67.4064    0.0000 </r>
       <r>   67.5691    0.0000 </r>
       <r>   67.6359    0.0000 </r>
       <r>   67.8043    0.0000 </r>
       <r>   67.8925    0.0000 </r>
       <r>   68.2152    0.0000 </r>
       <r>   68.3085    0.0000 </r>
       <r>   68.5106    0.0000 </r>
       <r>   68.5845    0.0000 </r>
       <r>   69.0390    0.0000 </r>
       <r>   69.1340    0.0000 </r>
       <r>   69.1491    0.0000 </r>
       <r>   69.3886    0.0000 </r>
       <r>   69.7238    0.0000 </r>
       <r>   69.7471    0.0000 </r>
       <r>   69.8479    0.0000 </r>
       <r>   69.8762    0.0000 </r>
       <r>   70.1228    0.0000 </r>
       <r>   70.3301    0.0000 </r>
       <r>   70.4921    0.0000 </r>
       <r>   70.4967    0.0000 </r>
       <r>   70.6342    0.0000 </r>
       <r>   70.6996    0.0000 </r>
       <r>   70.9202    0.0000 </r>
       <r>   70.9263    0.0000 </r>
       <r>   71.0767    0.0000 </r>
       <r>   71.3548    0.0000 </r>
       <r>   71.4285    0.0000 </r>
       <r>   71.4422    0.0000 </r>
       <r>   71.4481    0.0000 </r>
       <r>   71.5697    0.0000 </r>
       <r>   71.6282    0.0000 </r>
       <r>   72.8180    0.0000 </r>
       <r>   72.9641    0.0000 </r>
       <r>   72.9941    0.0000 </r>
       <r>   73.0840    0.0000 </r>
       <r>   73.5707    0.0000 </r>
       <r>   73.6158    0.0000 </r>
       <r>   73.7438    0.0000 </r>
       <r>   73.7774    0.0000 </r>
       <r>   74.0381    0.0000 </r>
       <r>   74.0873    0.0000 </r>
       <r>   74.2790    0.0000 </r>
       <r>   74.5998    0.0000 </r>
       <r>   74.6212    0.0000 </r>
       <r>   74.6645    0.0000 </r>
       <r>   74.8909    0.0000 </r>
       <r>   74.9799    0.0000 </r>
       <r>   75.3516    0.0000 </r>
       <r>   75.5207    0.0000 </r>
       <r>   75.9478    0.0000 </r>
       <r>   76.2251    0.0000 </r>
       <r>   76.3269    0.0000 </r>
       <r>   76.4378    0.0000 </r>
       <r>   76.6432    0.0000 </r>
       <r>   77.0400    0.0000 </r>
       <r>   77.0610    0.0000 </r>
       <r>   77.2144    0.0000 </r>
       <r>   77.3628    0.0000 </r>
       <r>   77.4198    0.0000 </r>
       <r>   77.5806    0.0000 </r>
       <r>   77.7200    0.0000 </r>
       <r>   77.9108    0.0000 </r>
       <r>   78.2082    0.0000 </r>
       <r>   78.2427    0.0000 </r>
       <r>   78.2612    0.0000 </r>
       <r>   78.2907    0.0000 </r>
       <r>   78.6760    0.0000 </r>
       <r>   78.7094    0.0000 </r>
       <r>   78.7275    0.0000 </r>
       <r>   79.0150    0.0000 </r>
       <r>   79.1421    0.0000 </r>
       <r>   79.1515    0.0000 </r>
       <r>   79.2345    0.0000 </r>
       <r>   79.2612    0.0000 </r>
       <r>   79.3174    0.0000 </r>
       <r>   79.5721    0.0000 </r>
       <r>   79.6689    0.0000 </r>
       <r>   79.8982    0.0000 </r>
       <r>   79.9118    0.0000 </r>
       <r>   80.1923    0.0000 </r>
       <r>   80.2444    0.0000 </r>
       <r>   80.4263    0.0000 </r>
       <r>   80.4901    0.0000 </r>
       <r>   80.5611    0.0000 </r>
       <r>   80.9882    0.0000 </r>
       <r>   81.2651    0.0000 </r>
       <r>   81.3481    0.0000 </r>
       <r>   81.8540    0.0000 </r>
       <r>   81.8852    0.0000 </r>
       <r>   82.0023    0.0000 </r>
       <r>   82.2395    0.0000 </r>
       <r>   82.6005    0.0000 </r>
       <r>   82.7009    0.0000 </r>
       <r>   82.9487    0.0000 </r>
       <r>   83.1451    0.0000 </r>
       <r>   83.1783    0.0000 </r>
       <r>   83.4019    0.0000 </r>
       <r>   83.4858    0.0000 </r>
       <r>   83.9376    0.0000 </r>
       <r>   84.0937    0.0000 </r>
       <r>   84.1838    0.0000 </r>
       <r>   84.3310    0.0000 </r>
       <r>   84.6606    0.0000 </r>
       <r>   84.8569    0.0000 </r>
       <r>   84.8822    0.0000 </r>
       <r>   85.1654    0.0000 </r>
       <r>   85.4277    0.0000 </r>
       <r>   85.4483    0.0000 </r>
       <r>   85.6360    0.0000 </r>
       <r>   85.9702    0.0000 </r>
       <r>   85.9975    0.0000 </r>
       <r>   86.1189    0.0000 </r>
       <r>   86.2743    0.0000 </r>
       <r>   86.7391    0.0000 </r>
       <r>   87.2595    0.0000 </r>
       <r>   87.3630    0.0000 </r>
       <r>   87.9322    0.0000 </r>
       <r>   87.9946    0.0000 </r>
       <r>   88.1374    0.0000 </r>
       <r>   88.2755    0.0000 </r>
       <r>   88.4795    0.0000 </r>
       <r>   88.7955    0.0000 </r>
       <r>   89.8355    0.0000 </r>
       <r>   90.5749    0.0000 </r>
       <r>   90.6763    0.0000 </r>
       <r>   90.7112    0.0000 </r>
       <r>   91.1599    0.0000 </r>
       <r>   91.1680    0.0000 </r>
       <r>   91.2909    0.0000 </r>
       <r>   91.3412    0.0000 </r>
       <r>   91.6520    0.0000 </r>
       <r>   91.9248    0.0000 </r>
       <r>   91.9549    0.0000 </r>
       <r>   92.0274    0.0000 </r>
       <r>   92.0603    0.0000 </r>
       <r>   92.1269    0.0000 </r>
       <r>   92.1423    0.0000 </r>
      </set>
      <set comment="kpoint 3">
       <r>  -18.4341    1.0000 </r>
       <r>  -15.1059    1.0000 </r>
       <r>  -14.7954    1.0000 </r>
       <r>  -12.4549    1.0000 </r>
       <r>  -11.9317    1.0000 </r>
       <r>  -10.7149    1.0000 </r>
       <r>   -9.3237    1.0000 </r>
       <r>   -7.3645    1.0000 </r>
       <r>   -7.1816    1.0000 </r>
       <r>   -5.4404    1.0000 </r>
       <r>   -5.0296    1.0000 </r>
       <r>   -3.6157    1.0000 </r>
       <r>   -3.2240    1.0000 </r>
       <r>   -3.0165    1.0000 </r>
       <r>   -2.7272    1.0000 </r>
       <r>   -1.1839    0.0000 </r>
       <r>    1.3238    0.0000 </r>
       <r>    1.8881    0.0000 </r>
       <r>    2.1281    0.0000 </r>
       <r>    2.4358    0.0000 </r>
       <r>    4.7294    0.0000 </r>
       <r>    6.1240    0.0000 </r>
       <r>    6.5551    0.0000 </r>
       <r>    6.9440    0.0000 </r>
       <r>    6.9598    0.0000 </r>
       <r>    7.9146    0.0000 </r>
       <r>    8.1729    0.0000 </r>
       <r>    8.2020    0.0000 </r>
       <r>    8.5790    0.0000 </r>
       <r>    8.7436    0.0000 </r>
       <r>    9.0740    0.0000 </r>
       <r>    9.9077    0.0000 </r>
       <r>    9.9160    0.0000 </r>
       <r>   10.4672    0.0000 </r>
       <r>   10.5716    0.0000 </r>
       <r>   10.5788    0.0000 </r>
       <r>   10.9114    0.0000 </r>
       <r>   11.5894    0.0000 </r>
       <r>   11.8802    0.0000 </r>
       <r>   12.1077    0.0000 </r>
       <r>   12.1424    0.0000 </r>
       <r>   12.3419    0.0000 </r>
       <r>   12.6423    0.0000 </r>
       <r>   13.0075    0.0000 </r>
       <r>   13.4775    0.0000 </r>
       <r>   14.1695    0.0000 </r>
       <r>   14.3858    0.0000 </r>
       <r>   15.1545    0.0000 </r>
       <r>   15.2765    0.0000 </r>
       <r>   15.3889    0.0000 </r>
       <r>   15.7997    0.0000 </r>
       <r>   16.1743    0.0000 </r>
       <r>   17.3574    0.0000 </r>
       <r>   17.5941    0.0000 </r>
       <r>   17.8616    0.0000 </r>
       <r>   19.0273    0.0000 </r>
       <r>   19.0831    0.0000 </r>
       <r>   19.1612    0.0000 </r>
       <r>   19.5522    0.0000 </r>
       <r>   19.8344    0.0000 </r>
       <r>   19.9231    0.0000 </r>
       <r>   20.1859    0.0000 </r>
       <r>   20.2006    0.0000 </r>
       <r>   20.2953    0.0000 </r>
       <r>   20.4610    0.0000 </r>
       <r>   20.6854    0.0000 </r>
       <r>   20.9076    0.0000 </r>
       <r>   20.9177    0.0000 </r>
       <r>   20.9658    0.0000 </r>
       <r>   21.2974    0.0000 </r>
       <r>   23.1084    0.0000 </r>
       <r>   23.7417    0.0000 </r>
       <r>   23.7808    0.0000 </r>
       <r>   23.9368    0.0000 </r>
       <r>   24.0480    0.0000 </r>
       <r>   24.1155    0.0000 </r>
       <r>   24.2288    0.0000 </r>
       <r>   24.2478    0.0000 </r>
       <r>   24.4571    0.0000 </r>
       <r>   24.5114    0.0000 </r>
       <r>   24.6934    0.0000 </r>
       <r>   24.7126    0.0000 </r>
       <r>   25.1039    0.0000 </r>
       <r>   25.1717    0.0000 </r>
       <r>   25.2293    0.0000 </r>
       <r>   26.4776    0.0000 </r>
       <r>   26.6052    0.0000 </r>
       <r>   26.9337    0.0000 </r>
       <r>   27.0663    0.0000 </r>
       <r>   27.5561    0.0000 </r>
       <r>   27.7010    0.0000 </r>
       <r>   28.0595    0.0000 </r>
       <r>   28.1032    0.0000 </r>
       <r>   28.1118    0.0000 </r>
       <r>   28.1885    0.0000 </r>
       <r>   29.1207    0.0000 </r>
       <r>   29.1320    0.0000 </r>
       <r>   29.6998    0.0000 </r>
       <r>   29.7331    0.0000 </r>
       <r>   29.7997    0.0000 </r>
       <r>   30.2525    0.0000 </r>
       <r>   30.3510    0.0000 </r>
       <r>   30.5885    0.0000 </r>
       <r>   30.9582    0.0000 </r>
       <r>   30.9705    0.0000 </r>
       <r>   31.5020    0.0000 </r>
       <r>   31.7567    0.0000 </r>
       <r>   31.9397    0.0000 </r>
       <r>   32.6385    0.0000 </r>
       <r>   32.7569    0.0000 </r>
       <r>   32.8169    0.0000 </r>
       <r>   32.8397    0.0000 </r>
       <r>   32.9283    0.0000 </r>
       <r>   33.0869    0.0000 </r>
       <r>   33.1632    0.0000 </r>
       <r>   33.2361    0.0000 </r>
       <r>   33.7486    0.0000 </r>
       <r>   33.7648    0.0000 </r>
       <r>   33.9660    0.0000 </r>
       <r>   34.0186    0.0000 </r>
       <r>   34.2044    0.0000 </r>
       <r>   34.6047    0.0000 </r>
       <r>   34.9498    0.0000 </r>
       <r>   35.2437    0.0000 </r>
       <r>   35.4874    0.0000 </r>
       <r>   36.2302    0.0000 </r>
       <r>   36.5183    0.0000 </r>
       <r>   36.7573    0.0000 </r>
       <r>   36.8777    0.0000 </r>
       <r>   37.0315    0.0000 </r>
       <r>   37.0646    0.0000 </r>
       <r>   37.4346    0.0000 </r>
       <r>   37.5842    0.0000 </r>
       <r>   37.9624    0.0000 </r>
       <r>   38.0094    0.0000 </r>
       <r>   38.1555    0.0000 </r>
       <r>   38.4170    0.0000 </r>
       <r>   38.8542    0.0000 </r>
       <r>   38.8811    0.0000 </r>
       <r>   39.1132    0.0000 </r>
       <r>   39.2447    0.0000 </r>
       <r>   39.8819    0.0000 </r>
       <r>   39.9875    0.0000 </r>
       <r>   40.0175    0.0000 </r>
       <r>   40.2079    0.0000 </r>
       <r>   40.3686    0.0000 </r>
       <r>   40.5672    0.0000 </r>
       <r>   40.9918    0.0000 </r>
       <r>   41.4309    0.0000 </r>
       <r>   41.5055    0.0000 </r>
       <r>   41.6760    0.0000 </r>
       <r>   41.6996    0.0000 </r>
       <r>   41.7220    0.0000 </r>
       <r>   41.9303    0.0000 </r>
       <r>   42.6752    0.0000 </r>
       <r>   42.7148    0.0000 </r>
       <r>   43.5865    0.0000 </r>
       <r>   43.8867    0.0000 </r>
       <r>   44.2380    0.0000 </r>
       <r>   44.5378    0.0000 </r>
       <r>   44.5403    0.0000 </r>
       <r>   44.7224    0.0000 </r>
       <r>   44.7919    0.0000 </r>
       <r>   45.3049    0.0000 </r>
       <r>   45.7839    0.0000 </r>
       <r>   46.2576    0.0000 </r>
       <r>   46.9417    0.0000 </r>
       <r>   47.1444    0.0000 </r>
       <r>   47.2395    0.0000 </r>
       <r>   47.3560    0.0000 </r>
       <r>   47.5831    0.0000 </r>
       <r>   47.7528    0.0000 </r>
       <r>   48.0740    0.0000 </r>
       <r>   48.1983    0.0000 </r>
       <r>   48.7077    0.0000 </r>
       <r>   48.8128    0.0000 </r>
       <r>   48.9407    0.0000 </r>
       <r>   49.0230    0.0000 </r>
       <r>   49.0710    0.0000 </r>
       <r>   49.1833    0.0000 </r>
       <r>   49.6233    0.0000 </r>
       <r>   50.0096    0.0000 </r>
       <r>   50.4447    0.0000 </r>
       <r>   50.7960    0.0000 </r>
       <r>   50.8175    0.0000 </r>
       <r>   51.0702    0.0000 </r>
       <r>   51.0973    0.0000 </r>
       <r>   51.2646    0.0000 </r>
       <r>   51.6052    0.0000 </r>
       <r>   51.7024    0.0000 </r>
       <r>   51.7616    0.0000 </r>
       <r>   51.7799    0.0000 </r>
       <r>   51.8773    0.0000 </r>
       <r>   52.1730    0.0000 </r>
       <r>   52.2752    0.0000 </r>
       <r>   52.3139    0.0000 </r>
       <r>   52.4321    0.0000 </r>
       <r>   52.4735    0.0000 </r>
       <r>   52.9221    0.0000 </r>
       <r>   52.9401    0.0000 </r>
       <r>   53.1255    0.0000 </r>
       <r>   53.2064    0.0000 </r>
       <r>   53.2902    0.0000 </r>
       <r>   53.3798    0.0000 </r>
       <r>   53.6811    0.0000 </r>
       <r>   53.9041    0.0000 </r>
       <r>   53.9563    0.0000 </r>
       <r>   54.2682    0.0000 </r>
       <r>   54.5095    0.0000 </r>
       <r>   54.6353    0.0000 </r>
       <r>   54.6388    0.0000 </r>
       <r>   54.6881    0.0000 </r>
       <r>   54.9549    0.0000 </r>
       <r>   55.2356    0.0000 </r>
       <r>   55.5023    0.0000 </r>
       <r>   55.5858    0.0000 </r>
       <r>   55.6711    0.0000 </r>
       <r>   56.0427    0.0000 </r>
       <r>   56.1326    0.0000 </r>
       <r>   56.4570    0.0000 </r>
       <r>   56.4874    0.0000 </r>
       <r>   56.6230    0.0000 </r>
       <r>   56.7015    0.0000 </r>
       <r>   56.7793    0.0000 </r>
       <r>   56.7801    0.0000 </r>
       <r>   56.8025    0.0000 </r>
       <r>   57.0056    0.0000 </r>
       <r>   57.0066    0.0000 </r>
       <r>   57.2368    0.0000 </r>
       <r>   57.3407    0.0000 </r>
       <r>   57.4834    0.0000 </r>
       <r>   57.8336    0.0000 </r>
       <r>   57.9182    0.0000 </r>
       <r>   58.1056    0.0000 </r>
       <r>   58.2455    0.0000 </r>
       <r>   58.4224    0.0000 </r>
       <r>   58.4813    0.0000 </r>
       <r>   59.4516    0.0000 </r>
       <r>   59.4563    0.0000 </r>
       <r>   59.8112    0.0000 </r>
       <r>   59.9746    0.0000 </r>
       <r>   60.0811    0.0000 </r>
       <r>   60.0917    0.0000 </r>
       <r>   60.2638    0.0000 </r>
       <r>   61.1602    0.0000 </r>
       <r>   61.3572    0.0000 </r>
       <r>   61.3716    0.0000 </r>
       <r>   61.5326    0.0000 </r>
       <r>   61.5417    0.0000 </r>
       <r>   61.6584    0.0000 </r>
       <r>   61.7090    0.0000 </r>
       <r>   61.7498    0.0000 </r>
       <r>   61.8022    0.0000 </r>
       <r>   61.9057    0.0000 </r>
       <r>   62.0189    0.0000 </r>
       <r>   62.0238    0.0000 </r>
       <r>   62.3300    0.0000 </r>
       <r>   62.5653    0.0000 </r>
       <r>   62.9404    0.0000 </r>
       <r>   63.0027    0.0000 </r>
       <r>   63.0147    0.0000 </r>
       <r>   63.1569    0.0000 </r>
       <r>   63.1792    0.0000 </r>
       <r>   63.6481    0.0000 </r>
       <r>   63.8384    0.0000 </r>
       <r>   64.5425    0.0000 </r>
       <r>   64.5654    0.0000 </r>
       <r>   64.5866    0.0000 </r>
       <r>   64.6965    0.0000 </r>
       <r>   64.7318    0.0000 </r>
       <r>   64.9493    0.0000 </r>
       <r>   65.1634    0.0000 </r>
       <r>   65.2316    0.0000 </r>
       <r>   65.2661    0.0000 </r>
       <r>   65.9334    0.0000 </r>
       <r>   65.9874    0.0000 </r>
       <r>   66.1768    0.0000 </r>
       <r>   66.2473    0.0000 </r>
       <r>   66.2570    0.0000 </r>
       <r>   66.3764    0.0000 </r>
       <r>   66.4075    0.0000 </r>
       <r>   66.7719    0.0000 </r>
       <r>   67.2470    0.0000 </r>
       <r>   67.4248    0.0000 </r>
       <r>   67.5070    0.0000 </r>
       <r>   67.6463    0.0000 </r>
       <r>   67.9536    0.0000 </r>
       <r>   68.1121    0.0000 </r>
       <r>   68.1307    0.0000 </r>
       <r>   68.4140    0.0000 </r>
       <r>   68.4233    0.0000 </r>
       <r>   68.9782    0.0000 </r>
       <r>   69.2038    0.0000 </r>
       <r>   69.2284    0.0000 </r>
       <r>   69.4678    0.0000 </r>
       <r>   69.5242    0.0000 </r>
       <r>   69.9148    0.0000 </r>
       <r>   69.9249    0.0000 </r>
       <r>   70.1112    0.0000 </r>
       <r>   70.1375    0.0000 </r>
       <r>   70.2368    0.0000 </r>
       <r>   70.2394    0.0000 </r>
       <r>   71.1069    0.0000 </r>
       <r>   71.3740    0.0000 </r>
       <r>   71.8423    0.0000 </r>
       <r>   71.8744    0.0000 </r>
       <r>   72.1543    0.0000 </r>
       <r>   72.4509    0.0000 </r>
       <r>   72.5701    0.0000 </r>
       <r>   72.6800    0.0000 </r>
       <r>   72.8245    0.0000 </r>
       <r>   72.8464    0.0000 </r>
       <r>   72.8694    0.0000 </r>
       <r>   72.9487    0.0000 </r>
       <r>   73.2455    0.0000 </r>
       <r>   73.2690    0.0000 </r>
       <r>   73.4245    0.0000 </r>
       <r>   73.5394    0.0000 </r>
       <r>   73.7491    0.0000 </r>
       <r>   74.0139    0.0000 </r>
       <r>   74.1464    0.0000 </r>
       <r>   74.1779    0.0000 </r>
       <r>   74.2703    0.0000 </r>
       <r>   74.2903    0.0000 </r>
       <r>   74.4060    0.0000 </r>
       <r>   74.4292    0.0000 </r>
       <r>   74.9345    0.0000 </r>
       <r>   75.1801    0.0000 </r>
       <r>   75.2354    0.0000 </r>
       <r>   75.5101    0.0000 </r>
       <r>   75.6743    0.0000 </r>
       <r>   75.8107    0.0000 </r>
       <r>   76.0990    0.0000 </r>
       <r>   76.3046    0.0000 </r>
       <r>   76.3550    0.0000 </r>
       <r>   76.4491    0.0000 </r>
       <r>   76.5580    0.0000 </r>
       <r>   76.7580    0.0000 </r>
       <r>   76.7796    0.0000 </r>
       <r>   76.8412    0.0000 </r>
       <r>   76.8907    0.0000 </r>
       <r>   77.0644    0.0000 </r>
       <r>   77.2053    0.0000 </r>
       <r>   77.2098    0.0000 </r>
       <r>   77.2651    0.0000 </r>
       <r>   77.5168    0.0000 </r>
       <r>   77.9975    0.0000 </r>
       <r>   78.0429    0.0000 </r>
       <r>   78.1376    0.0000 </r>
       <r>   78.3209    0.0000 </r>
       <r>   78.4194    0.0000 </r>
       <r>   78.8013    0.0000 </r>
       <r>   78.8751    0.0000 </r>
       <r>   78.8780    0.0000 </r>
       <r>   78.9060    0.0000 </r>
       <r>   79.1304    0.0000 </r>
       <r>   79.2140    0.0000 </r>
       <r>   79.2184    0.0000 </r>
       <r>   79.6083    0.0000 </r>
       <r>   79.6841    0.0000 </r>
       <r>   79.9031    0.0000 </r>
       <r>   79.9117    0.0000 </r>
       <r>   80.0249    0.0000 </r>
       <r>   80.2832    0.0000 </r>
       <r>   80.3424    0.0000 </r>
       <r>   80.3745    0.0000 </r>
       <r>   80.4647    0.0000 </r>
       <r>   80.9587    0.0000 </r>
       <r>   81.3427    0.0000 </r>
       <r>   81.3717    0.0000 </r>
       <r>   81.9811    0.0000 </r>
       <r>   82.2948    0.0000 </r>
       <r>   82.4543    0.0000 </r>
       <r>   82.4851    0.0000 </r>
       <r>   83.0253    0.0000 </r>
       <r>   83.1184    0.0000 </r>
       <r>   83.6797    0.0000 </r>
       <r>   83.8270    0.0000 </r>
       <r>   83.9231    0.0000 </r>
       <r>   84.2105    0.0000 </r>
       <r>   84.3311    0.0000 </r>
       <r>   84.6183    0.0000 </r>
       <r>   84.6613    0.0000 </r>
       <r>   84.8472    0.0000 </r>
       <r>   84.9400    0.0000 </r>
       <r>   85.0504    0.0000 </r>
       <r>   85.2029    0.0000 </r>
       <r>   85.4069    0.0000 </r>
       <r>   85.4362    0.0000 </r>
       <r>   86.0062    0.0000 </r>
       <r>   86.0772    0.0000 </r>
       <r>   86.1274    0.0000 </r>
       <r>   86.4064    0.0000 </r>
       <r>   86.4259    0.0000 </r>
       <r>   86.5872    0.0000 </r>
       <r>   87.0219    0.0000 </r>
       <r>   87.0540    0.0000 </r>
       <r>   87.4051    0.0000 </r>
       <r>   87.5456    0.0000 </r>
       <r>   87.6281    0.0000 </r>
       <r>   87.6893    0.0000 </r>
       <r>   87.7694    0.0000 </r>
       <r>   87.8628    0.0000 </r>
       <r>   88.1814    0.0000 </r>
       <r>   88.4175    0.0000 </r>
       <r>   88.8077    0.0000 </r>
       <r>   88.9624    0.0000 </r>
       <r>   89.1116    0.0000 </r>
       <r>   89.1164    0.0000 </r>
       <r>   89.3527    0.0000 </r>
       <r>   90.1022    0.0000 </r>
       <r>   90.1514    0.0000 </r>
       <r>   90.1541    0.0000 </r>
       <r>   90.5435    0.0000 </r>
       <r>   90.5817    0.0000 </r>
       <r>   90.6225    0.0000 </r>
       <r>   90.7796    0.0000 </r>
       <r>   90.8776    0.0000 </r>
       <r>   90.9427    0.0000 </r>
       <r>   91.1693    0.0000 </r>
      </set>
      <set comment="kpoint 4">
       <r>  -18.3111    1.0000 </r>
       <r>  -15.5025    1.0000 </r>
       <r>  -14.9178    1.0000 </r>
       <r>  -12.6026    1.0000 </r>
       <r>  -11.5471    1.0000 </r>
       <r>  -10.1724    1.0000 </r>
       <r>   -8.7139    1.0000 </r>
       <r>   -7.6782    1.0000 </r>
       <r>   -6.9823    1.0000 </r>
       <r>   -5.9473    1.0000 </r>
       <r>   -5.0207    1.0000 </r>
       <r>   -4.0930    1.0000 </r>
       <r>   -3.6340    1.0000 </r>
       <r>   -3.2941    1.0000 </r>
       <r>   -3.0028    1.0000 </r>
       <r>   -1.4707    0.0000 </r>
       <r>    1.5522    0.0000 </r>
       <r>    2.2445    0.0000 </r>
       <r>    2.3849    0.0000 </r>
       <r>    3.3190    0.0000 </r>
       <r>    4.9927    0.0000 </r>
       <r>    6.0211    0.0000 </r>
       <r>    6.3584    0.0000 </r>
       <r>    6.7511    0.0000 </r>
       <r>    7.6029    0.0000 </r>
       <r>    7.8092    0.0000 </r>
       <r>    7.9266    0.0000 </r>
       <r>    8.1647    0.0000 </r>
       <r>    8.2206    0.0000 </r>
       <r>    8.9264    0.0000 </r>
       <r>    9.3180    0.0000 </r>
       <r>    9.4674    0.0000 </r>
       <r>    9.4698    0.0000 </r>
       <r>   10.1391    0.0000 </r>
       <r>   10.1768    0.0000 </r>
       <r>   11.1044    0.0000 </r>
       <r>   11.3401    0.0000 </r>
       <r>   11.7682    0.0000 </r>
       <r>   11.8214    0.0000 </r>
       <r>   12.3380    0.0000 </r>
       <r>   12.3959    0.0000 </r>
       <r>   12.5104    0.0000 </r>
       <r>   13.2333    0.0000 </r>
       <r>   13.2608    0.0000 </r>
       <r>   14.2225    0.0000 </r>
       <r>   14.4784    0.0000 </r>
       <r>   14.8590    0.0000 </r>
       <r>   15.0380    0.0000 </r>
       <r>   15.3045    0.0000 </r>
       <r>   16.0072    0.0000 </r>
       <r>   16.0964    0.0000 </r>
       <r>   16.2607    0.0000 </r>
       <r>   16.4635    0.0000 </r>
       <r>   17.1509    0.0000 </r>
       <r>   17.2038    0.0000 </r>
       <r>   18.7148    0.0000 </r>
       <r>   18.8973    0.0000 </r>
       <r>   18.9961    0.0000 </r>
       <r>   19.1637    0.0000 </r>
       <r>   19.3560    0.0000 </r>
       <r>   19.6341    0.0000 </r>
       <r>   19.6521    0.0000 </r>
       <r>   19.8567    0.0000 </r>
       <r>   20.1793    0.0000 </r>
       <r>   20.2805    0.0000 </r>
       <r>   20.6624    0.0000 </r>
       <r>   20.7056    0.0000 </r>
       <r>   21.0592    0.0000 </r>
       <r>   21.0780    0.0000 </r>
       <r>   21.4988    0.0000 </r>
       <r>   21.9505    0.0000 </r>
       <r>   22.9605    0.0000 </r>
       <r>   23.2358    0.0000 </r>
       <r>   23.2529    0.0000 </r>
       <r>   23.3291    0.0000 </r>
       <r>   23.5515    0.0000 </r>
       <r>   24.0815    0.0000 </r>
       <r>   24.5135    0.0000 </r>
       <r>   24.5438    0.0000 </r>
       <r>   24.5896    0.0000 </r>
       <r>   24.7054    0.0000 </r>
       <r>   25.0584    0.0000 </r>
       <r>   25.2804    0.0000 </r>
       <r>   25.5470    0.0000 </r>
       <r>   25.6479    0.0000 </r>
       <r>   25.6602    0.0000 </r>
       <r>   26.4057    0.0000 </r>
       <r>   26.7615    0.0000 </r>
       <r>   27.3091    0.0000 </r>
       <r>   28.0925    0.0000 </r>
       <r>   28.1525    0.0000 </r>
       <r>   28.1598    0.0000 </r>
       <r>   28.1715    0.0000 </r>
       <r>   28.3197    0.0000 </r>
       <r>   28.6563    0.0000 </r>
       <r>   28.6892    0.0000 </r>
       <r>   29.1922    0.0000 </r>
       <r>   29.5560    0.0000 </r>
       <r>   29.8650    0.0000 </r>
       <r>   29.9607    0.0000 </r>
       <r>   30.0805    0.0000 </r>
       <r>   30.1473    0.0000 </r>
       <r>   30.6552    0.0000 </r>
       <r>   30.9060    0.0000 </r>
       <r>   31.0702    0.0000 </r>
       <r>   31.7272    0.0000 </r>
       <r>   31.9407    0.0000 </r>
       <r>   31.9744    0.0000 </r>
       <r>   32.2557    0.0000 </r>
       <r>   32.4165    0.0000 </r>
       <r>   32.5241    0.0000 </r>
       <r>   32.5549    0.0000 </r>
       <r>   33.0529    0.0000 </r>
       <r>   33.4802    0.0000 </r>
       <r>   33.5835    0.0000 </r>
       <r>   33.8017    0.0000 </r>
       <r>   33.9561    0.0000 </r>
       <r>   34.1088    0.0000 </r>
       <r>   34.2691    0.0000 </r>
       <r>   34.6196    0.0000 </r>
       <r>   34.9734    0.0000 </r>
       <r>   35.1859    0.0000 </r>
       <r>   35.7166    0.0000 </r>
       <r>   35.7976    0.0000 </r>
       <r>   35.8135    0.0000 </r>
       <r>   36.4358    0.0000 </r>
       <r>   36.7285    0.0000 </r>
       <r>   36.8859    0.0000 </r>
       <r>   37.2446    0.0000 </r>
       <r>   37.2882    0.0000 </r>
       <r>   37.7699    0.0000 </r>
       <r>   37.8238    0.0000 </r>
       <r>   37.9895    0.0000 </r>
       <r>   38.6388    0.0000 </r>
       <r>   39.0195    0.0000 </r>
       <r>   39.0640    0.0000 </r>
       <r>   39.1075    0.0000 </r>
       <r>   39.2829    0.0000 </r>
       <r>   39.3790    0.0000 </r>
       <r>   39.5941    0.0000 </r>
       <r>   39.6123    0.0000 </r>
       <r>   39.7353    0.0000 </r>
       <r>   39.9602    0.0000 </r>
       <r>   40.1138    0.0000 </r>
       <r>   40.1251    0.0000 </r>
       <r>   40.2040    0.0000 </r>
       <r>   40.9925    0.0000 </r>
       <r>   41.3002    0.0000 </r>
       <r>   41.6598    0.0000 </r>
       <r>   41.7458    0.0000 </r>
       <r>   41.8535    0.0000 </r>
       <r>   41.9176    0.0000 </r>
       <r>   42.3695    0.0000 </r>
       <r>   42.4999    0.0000 </r>
       <r>   42.6064    0.0000 </r>
       <r>   42.8776    0.0000 </r>
       <r>   43.1819    0.0000 </r>
       <r>   43.5598    0.0000 </r>
       <r>   43.6217    0.0000 </r>
       <r>   43.9314    0.0000 </r>
       <r>   44.3277    0.0000 </r>
       <r>   44.6186    0.0000 </r>
       <r>   44.9663    0.0000 </r>
       <r>   45.2003    0.0000 </r>
       <r>   45.3725    0.0000 </r>
       <r>   45.4747    0.0000 </r>
       <r>   45.6654    0.0000 </r>
       <r>   46.2222    0.0000 </r>
       <r>   46.3786    0.0000 </r>
       <r>   46.4762    0.0000 </r>
       <r>   46.8449    0.0000 </r>
       <r>   46.8456    0.0000 </r>
       <r>   46.9597    0.0000 </r>
       <r>   47.2318    0.0000 </r>
       <r>   47.9891    0.0000 </r>
       <r>   48.4743    0.0000 </r>
       <r>   48.4990    0.0000 </r>
       <r>   48.5620    0.0000 </r>
       <r>   48.8907    0.0000 </r>
       <r>   49.2050    0.0000 </r>
       <r>   49.4216    0.0000 </r>
       <r>   49.4744    0.0000 </r>
       <r>   49.9091    0.0000 </r>
       <r>   50.0110    0.0000 </r>
       <r>   50.0163    0.0000 </r>
       <r>   50.0237    0.0000 </r>
       <r>   50.3216    0.0000 </r>
       <r>   50.4912    0.0000 </r>
       <r>   50.7075    0.0000 </r>
       <r>   50.9413    0.0000 </r>
       <r>   51.1774    0.0000 </r>
       <r>   51.4010    0.0000 </r>
       <r>   51.4275    0.0000 </r>
       <r>   51.7283    0.0000 </r>
       <r>   51.9061    0.0000 </r>
       <r>   52.1448    0.0000 </r>
       <r>   52.1935    0.0000 </r>
       <r>   52.2059    0.0000 </r>
       <r>   52.3367    0.0000 </r>
       <r>   52.8108    0.0000 </r>
       <r>   52.8464    0.0000 </r>
       <r>   52.8583    0.0000 </r>
       <r>   53.2313    0.0000 </r>
       <r>   53.3892    0.0000 </r>
       <r>   53.6028    0.0000 </r>
       <r>   53.8192    0.0000 </r>
       <r>   54.1504    0.0000 </r>
       <r>   54.1964    0.0000 </r>
       <r>   54.2534    0.0000 </r>
[...]
       <r>    78.3564    11.4791   693.4034 </r>
       <r>    78.4072    10.4017   693.9317 </r>
       <r>    78.4580     4.8853   694.1798 </r>
       <r>    78.5088    11.8212   694.7801 </r>
       <r>    78.5596     9.0421   695.2394 </r>
       <r>    78.6103    12.7545   695.8871 </r>
       <r>    78.6611    19.1806   696.8612 </r>
       <r>    78.7119    18.8895   697.8205 </r>
       <r>    78.7627    10.9223   698.3752 </r>
       <r>    78.8135     5.3946   698.6492 </r>
       <r>    78.8643    10.1716   699.1658 </r>
       <r>    78.9151    16.6385   700.0108 </r>
       <r>    78.9658    15.1985   700.7826 </r>
       <r>    79.0166     9.8223   701.2815 </r>
       <r>    79.0674    17.6600   702.1783 </r>
       <r>    79.1182     7.6825   702.5685 </r>
       <r>    79.1690    22.1576   703.6938 </r>
       <r>    79.2198    14.1144   704.4106 </r>
       <r>    79.2706    10.7833   704.9582 </r>
       <r>    79.3213    10.2365   705.4781 </r>
       <r>    79.3721     4.5708   705.7102 </r>
       <r>    79.4229    19.8995   706.7208 </r>
       <r>    79.4737    19.3726   707.7047 </r>
       <r>    79.5245     6.4327   708.0314 </r>
       <r>    79.5753    14.6829   708.7771 </r>
       <r>    79.6261     8.1679   709.1919 </r>
       <r>    79.6768    15.9516   710.0020 </r>
       <r>    79.7276     8.6492   710.4412 </r>
       <r>    79.7784    22.6409   711.5911 </r>
       <r>    79.8292     9.4595   712.0715 </r>
       <r>    79.8800     8.8431   712.5206 </r>
       <r>    79.9308    13.9640   713.2298 </r>
       <r>    79.9816    20.2110   714.2562 </r>
       <r>    80.0323    18.4541   715.1934 </r>
       <r>    80.0831     8.6269   715.6315 </r>
       <r>    80.1339    10.2636   716.1528 </r>
       <r>    80.1847    11.0092   716.7119 </r>
       <r>    80.2355    10.8202   717.2614 </r>
       <r>    80.2863     5.6116   717.5464 </r>
       <r>    80.3371    11.0718   718.1087 </r>
       <r>    80.3878    14.0544   718.8224 </r>
       <r>    80.4386    21.7293   719.9260 </r>
       <r>    80.4894    13.5861   720.6159 </r>
       <r>    80.5402     9.7780   721.1125 </r>
       <r>    80.5910     6.5394   721.4446 </r>
       <r>    80.6418    10.6905   721.9876 </r>
       <r>    80.6925    15.2863   722.7639 </r>
       <r>    80.7433     8.6310   723.2022 </r>
       <r>    80.7941     5.3142   723.4721 </r>
       <r>    80.8449    10.3719   723.9988 </r>
       <r>    80.8957    10.1317   724.5134 </r>
       <r>    80.9465     4.8891   724.7617 </r>
       <r>    80.9973    13.9611   725.4707 </r>
       <r>    81.0480    16.1507   726.2909 </r>
       <r>    81.0988    13.1724   726.9599 </r>
       <r>    81.1496    21.5191   728.0528 </r>
       <r>    81.2004    15.7833   728.8543 </r>
       <r>    81.2512     9.4786   729.3357 </r>
       <r>    81.3020     5.4226   729.6111 </r>
       <r>    81.3528    18.7553   730.5636 </r>
       <r>    81.4035    25.8960   731.8788 </r>
       <r>    81.4543    14.1636   732.5981 </r>
       <r>    81.5051    14.1667   733.3175 </r>
       <r>    81.5559     7.4218   733.6945 </r>
       <r>    81.6067    12.7642   734.3427 </r>
       <r>    81.6575     6.8077   734.6884 </r>
       <r>    81.7083     6.9336   735.0406 </r>
       <r>    81.7590     8.2261   735.4583 </r>
       <r>    81.8098     6.3510   735.7809 </r>
       <r>    81.8606    12.8800   736.4350 </r>
       <r>    81.9114    18.0503   737.3517 </r>
       <r>    81.9622    13.0960   738.0168 </r>
       <r>    82.0130    23.4653   739.2085 </r>
       <r>    82.0638    19.0683   740.1769 </r>
       <r>    82.1145     7.1009   740.5375 </r>
       <r>    82.1653    14.3767   741.2676 </r>
       <r>    82.2161     5.3284   741.5382 </r>
       <r>    82.2669     9.8562   742.0388 </r>
       <r>    82.3177     9.0898   742.5004 </r>
       <r>    82.3685     7.1890   742.8655 </r>
       <r>    82.4193    19.1266   743.8369 </r>
       <r>    82.4700    16.8167   744.6909 </r>
       <r>    82.5208    18.9980   745.6557 </r>
       <r>    82.5716    10.8119   746.2048 </r>
       <r>    82.6224    11.8403   746.8061 </r>
       <r>    82.6732    15.2833   747.5823 </r>
       <r>    82.7240    10.4862   748.1149 </r>
       <r>    82.7748     9.9386   748.6196 </r>
       <r>    82.8255    15.3281   749.3981 </r>
       <r>    82.8763    14.8104   750.1502 </r>
       <r>    82.9271    11.6021   750.7394 </r>
       <r>    82.9779     9.7153   751.2328 </r>
       <r>    83.0287    14.9615   751.9927 </r>
       <r>    83.0795     8.7218   752.4356 </r>
       <r>    83.1303    12.5160   753.0712 </r>
       <r>    83.1810     7.6213   753.4583 </r>
       <r>    83.2318    16.6188   754.3023 </r>
       <r>    83.2826     8.5732   754.7377 </r>
       <r>    83.3334     9.8421   755.2375 </r>
       <r>    83.3842     9.1198   755.7007 </r>
       <r>    83.4350    21.4741   756.7913 </r>
       <r>    83.4858    18.7303   757.7425 </r>
       <r>    83.5365     6.1473   758.0547 </r>
       <r>    83.5873     7.8861   758.4552 </r>
       <r>    83.6381    15.4034   759.2375 </r>
       <r>    83.6889    13.0479   759.9001 </r>
       <r>    83.7397    10.6999   760.4435 </r>
       <r>    83.7905    12.2618   761.0662 </r>
       <r>    83.8413     4.9106   761.3156 </r>
       <r>    83.8920    12.6919   761.9602 </r>
       <r>    83.9428     7.6076   762.3465 </r>
       <r>    83.9936    11.5791   762.9346 </r>
       <r>    84.0444    20.6186   763.9817 </r>
       <r>    84.0952    21.2508   765.0610 </r>
       <r>    84.1460    10.5907   765.5988 </r>
       <r>    84.1968    11.4254   766.1791 </r>
       <r>    84.2475     8.7116   766.6215 </r>
       <r>    84.2983    19.8784   767.6310 </r>
       <r>    84.3491     9.1626   768.0964 </r>
       <r>    84.3999     7.3532   768.4698 </r>
       <r>    84.4507     9.5869   768.9567 </r>
       <r>    84.5015    12.4597   769.5894 </r>
       <r>    84.5523    11.0229   770.1493 </r>
       <r>    84.6030    11.2855   770.7224 </r>
       <r>    84.6538    11.1431   771.2883 </r>
       <r>    84.7046    14.3124   772.0152 </r>
       <r>    84.7554    27.7191   773.4229 </r>
       <r>    84.8062    10.4393   773.9531 </r>
       <r>    84.8570    13.5304   774.6402 </r>
       <r>    84.9078    12.6771   775.2840 </r>
       <r>    84.9585    14.5567   776.0233 </r>
       <r>    85.0093    21.2137   777.1007 </r>
       <r>    85.0601    14.1922   777.8214 </r>
       <r>    85.1109    10.0506   778.3318 </r>
       <r>    85.1617    26.1776   779.6613 </r>
       <r>    85.2125    11.8323   780.2622 </r>
       <r>    85.2633    10.9652   780.8191 </r>
       <r>    85.3140    15.7478   781.6188 </r>
       <r>    85.3648    18.4013   782.5534 </r>
       <r>    85.4156    10.8587   783.1048 </r>
       <r>    85.4664    17.5898   783.9981 </r>
       <r>    85.5172    15.0004   784.7600 </r>
       <r>    85.5680     7.9158   785.1620 </r>
       <r>    85.6188     9.0135   785.6197 </r>
       <r>    85.6695     8.6590   786.0595 </r>
       <r>    85.7203     9.2970   786.5316 </r>
       <r>    85.7711     9.2171   786.9997 </r>
       <r>    85.8219    18.8157   787.9553 </r>
       <r>    85.8727     8.4806   788.3860 </r>
       <r>    85.9235     8.5788   788.8217 </r>
       <r>    85.9743    15.8237   789.6253 </r>
       <r>    86.0250    27.1782   791.0056 </r>
       <r>    86.0758     4.5159   791.2349 </r>
       <r>    86.1266    10.8419   791.7855 </r>
       <r>    86.1774    11.7889   792.3842 </r>
       <r>    86.2282    12.2140   793.0045 </r>
       <r>    86.2790    14.0976   793.7205 </r>
       <r>    86.3298    16.5401   794.5605 </r>
       <r>    86.3805     6.6076   794.8960 </r>
       <r>    86.4313    19.0681   795.8644 </r>
       <r>    86.4821    13.6074   796.5555 </r>
       <r>    86.5329    12.8621   797.2087 </r>
       <r>    86.5837    10.6471   797.7494 </r>
       <r>    86.6345    18.6329   798.6957 </r>
       <r>    86.6853    13.4590   799.3792 </r>
       <r>    86.7360    11.8564   799.9813 </r>
       <r>    86.7868    16.0181   800.7948 </r>
       <r>    86.8376     2.4858   800.9211 </r>
       <r>    86.8884    11.2992   801.4949 </r>
       <r>    86.9392     8.1674   801.9097 </r>
       <r>    86.9900    15.9989   802.7222 </r>
       <r>    87.0408     5.5148   803.0023 </r>
       <r>    87.0915    12.2415   803.6240 </r>
       <r>    87.1423     5.8571   803.9214 </r>
       <r>    87.1931    12.7145   804.5672 </r>
       <r>    87.2439     8.1429   804.9807 </r>
       <r>    87.2947    10.3227   805.5049 </r>
       <r>    87.3455     8.3431   805.9286 </r>
       <r>    87.3963    21.5831   807.0248 </r>
       <r>    87.4470    12.2501   807.6469 </r>
       <r>    87.4978    14.1012   808.3630 </r>
       <r>    87.5486    11.1416   808.9289 </r>
       <r>    87.5994    10.2984   809.4519 </r>
       <r>    87.6502     5.9848   809.7558 </r>
       <r>    87.7010    14.4605   810.4902 </r>
       <r>    87.7518     9.0992   810.9523 </r>
       <r>    87.8025    11.8328   811.5532 </r>
       <r>    87.8533    15.9076   812.3611 </r>
       <r>    87.9041     5.7626   812.6538 </r>
       <r>    87.9549    11.7821   813.2521 </r>
       <r>    88.0057    20.8596   814.3115 </r>
       <r>    88.0565    11.1593   814.8782 </r>
       <r>    88.1073    14.6281   815.6211 </r>
       <r>    88.1580    18.6991   816.5708 </r>
       <r>    88.2088     9.0817   817.0320 </r>
       <r>    88.2596     8.3774   817.4575 </r>
       <r>    88.3104     3.9716   817.6592 </r>
       <r>    88.3612    15.1261   818.4273 </r>
       <r>    88.4120     9.0505   818.8870 </r>
       <r>    88.4628    21.5150   819.9796 </r>
       <r>    88.5135    12.5362   820.6163 </r>
       <r>    88.5643    13.3150   821.2925 </r>
       <r>    88.6151    11.6744   821.8854 </r>
       <r>    88.6659    14.7527   822.6346 </r>
       <r>    88.7167    18.8011   823.5895 </r>
       <r>    88.7675    12.2141   824.2098 </r>
       <r>    88.8183    15.9604   825.0203 </r>
       <r>    88.8690    10.7665   825.5671 </r>
       <r>    88.9198    14.3421   826.2955 </r>
       <r>    88.9706    14.2011   827.0167 </r>
       <r>    89.0214    11.0774   827.5793 </r>
       <r>    89.0722     9.1122   828.0420 </r>
       <r>    89.1230    11.1234   828.6069 </r>
       <r>    89.1738    15.6981   829.4042 </r>
       <r>    89.2245     7.2500   829.7724 </r>
       <r>    89.2753     7.8171   830.1694 </r>
       <r>    89.3261    15.4344   830.9532 </r>
       <r>    89.3769    17.6365   831.8489 </r>
       <r>    89.4277     7.0508   832.2070 </r>
       <r>    89.4785    12.3224   832.8328 </r>
       <r>    89.5293     4.6770   833.0703 </r>
       <r>    89.5800     6.4608   833.3984 </r>
       <r>    89.6308     4.0155   833.6024 </r>
       <r>    89.6816     1.7357   833.6905 </r>
       <r>    89.7324     7.4479   834.0687 </r>
       <r>    89.7832     5.2790   834.3368 </r>
       <r>    89.8340     6.0922   834.6462 </r>
       <r>    89.8848     5.8481   834.9432 </r>
       <r>    89.9355     0.1105   834.9489 </r>
       <r>    89.9863     1.5615   835.0282 </r>
       <r>    90.0371     4.9034   835.2772 </r>
       <r>    90.0879     8.2045   835.6938 </r>
       <r>    90.1387     3.6262   835.8780 </r>
       <r>    90.1895     4.6007   836.1117 </r>
       <r>    90.2403     0.9954   836.1622 </r>
       <r>    90.2910     3.2730   836.3284 </r>
       <r>    90.3418     4.4732   836.5556 </r>
       <r>    90.3926     4.7529   836.7970 </r>
       <r>    90.4434     0.4424   836.8194 </r>
       <r>    90.4942     0.7443   836.8572 </r>
       <r>    90.5450     4.8435   837.1032 </r>
       <r>    90.5958     4.2323   837.3182 </r>
       <r>    90.6465     6.5882   837.6527 </r>
       <r>    90.6973     1.6889   837.7385 </r>
       <r>    90.7481     3.2343   837.9028 </r>
       <r>    90.7989     4.9049   838.1519 </r>
       <r>    90.8497     1.6572   838.2360 </r>
       <r>    90.9005     1.6414   838.3194 </r>
       <r>    90.9513     1.4540   838.3932 </r>
       <r>    91.0020     0.1878   838.4028 </r>
       <r>    91.0528     0.0000   838.4028 </r>
       <r>    91.1036     0.0000   838.4028 </r>
       <r>    91.1544     0.6377   838.4352 </r>
       <r>    91.2052     4.5584   838.6667 </r>
       <r>    91.2560     0.3414   838.6840 </r>
       <r>    91.3068     2.9196   838.8323 </r>
       <r>    91.3575     3.2494   838.9973 </r>
       <r>    91.4083     0.0531   839.0000 </r>
       <r>    91.4591     0.0000   839.0000 </r>
       <r>    91.5099     0.0000   839.0000 </r>
       <r>    91.5607     0.8434   839.0428 </r>
       <r>    91.6115     2.3292   839.1611 </r>
       <r>    91.6623     1.6309   839.2439 </r>
       <r>    91.7130     0.4017   839.2644 </r>
       <r>    91.7638     0.8059   839.3053 </r>
       <r>    91.8146     1.9165   839.4026 </r>
       <r>    91.8654     0.0033   839.4028 </r>
       <r>    91.9162     0.1845   839.4121 </r>
       <r>    91.9670     3.0262   839.5658 </r>
       <r>    92.0178     0.4119   839.5868 </r>
       <r>    92.0685     3.0148   839.7399 </r>
       <r>    92.1193     0.7677   839.7788 </r>
       <r>    92.1701     3.2607   839.9444 </r>
       <r>    92.2209     0.8904   839.9897 </r>
       <r>    92.2717     0.2035   840.0000 </r>
       <r>    92.3225     0.0000   840.0000 </r>
       <r>    92.3733     0.0000   840.0000 </r>
       <r>    92.4240     0.0000   840.0000 </r>
       <r>    92.4748     0.0000   840.0000 </r>
       <r>    92.5256     0.0000   840.0000 </r>
       <r>    92.5764     0.0000   840.0000 </r>
       <r>    92.6272     0.0000   840.0000 </r>
       <r>    92.6780     0.0000   840.0000 </r>
       <r>    92.7288     0.0000   840.0000 </r>
       <r>    92.7795     0.0000   840.0000 </r>
       <r>    92.8303     0.0000   840.0000 </r>
       <r>    92.8811     0.0000   840.0000 </r>
       <r>    92.9319     0.0000   840.0000 </r>
       <r>    92.9827     0.0000   840.0000 </r>
       <r>    93.0335     0.0000   840.0000 </r>
       <r>    93.0843     0.0000   840.0000 </r>
       <r>    93.1350     0.0000   840.0000 </r>
       <r>    93.1858     0.0000   840.0000 </r>
       <r>    93.2366     0.0000   840.0000 </r>
       <r>    93.2874     0.0000   840.0000 </r>
       <r>    93.3382     0.0000   840.0000 </r>
       <r>    93.3890     0.0000   840.0000 </r>
       <r>    93.4398     0.0000   840.0000 </r>
       <r>    93.4905     0.0000   840.0000 </r>
       <r>    93.5413     0.0000   840.0000 </r>
       <r>    93.5921     0.0000   840.0000 </r>
       <r>    93.6429     0.0000   840.0000 </r>
       <r>    93.6937     0.0000   840.0000 </r>
       <r>    93.7445     0.0000   840.0000 </r>
       <r>    93.7953     0.0000   840.0000 </r>
       <r>    93.8460     0.0000   840.0000 </r>
       <r>    93.8968     0.0000   840.0000 </r>
       <r>    93.9476     0.0000   840.0000 </r>
       <r>    93.9984     0.0000   840.0000 </r>
       <r>    94.0492     0.0000   840.0000 </r>
       <r>    94.1000     0.0000   840.0000 </r>
       <r>    94.1508     0.0000   840.0000 </r>
       <r>    94.2015     0.0000   840.0000 </r>
       <r>    94.2523     0.0000   840.0000 </r>
       <r>    94.3031     0.0000   840.0000 </r>
       <r>    94.3539     0.0000   840.0000 </r>
       <r>    94.4047     0.0000   840.0000 </r>
       <r>    94.4555     0.0000   840.0000 </r>
       <r>    94.5063     0.0000   840.0000 </r>
       <r>    94.5570     0.0000   840.0000 </r>
       <r>    94.6078     0.0000   840.0000 </r>
       <r>    94.6586     0.0000   840.0000 </r>
       <r>    94.7094     0.0000   840.0000 </r>
       <r>    94.7602     0.0000   840.0000 </r>
       <r>    94.8110     0.0000   840.0000 </r>
       <r>    94.8618     0.0000   840.0000 </r>
       <r>    94.9125     0.0000   840.0000 </r>
       <r>    94.9633     0.0000   840.0000 </r>
       <r>    95.0141     0.0000   840.0000 </r>
       <r>    95.0649     0.0000   840.0000 </r>
       <r>    95.1157     0.0000   840.0000 </r>
       <r>    95.1665     0.0000   840.0000 </r>
       <r>    95.2172     0.0000   840.0000 </r>
       <r>    95.2680     0.0000   840.0000 </r>
       <r>    95.3188     0.0000   840.0000 </r>
       <r>    95.3696     0.0000   840.0000 </r>
       <r>    95.4204     0.0000   840.0000 </r>
       <r>    95.4712     0.0000   840.0000 </r>
       <r>    95.5220     0.0000   840.0000 </r>
       <r>    95.5727     0.0000   840.0000 </r>
       <r>    95.6235     0.0000   840.0000 </r>
       <r>    95.6743     0.0000   840.0000 </r>
       <r>    95.7251     0.0000   840.0000 </r>
       <r>    95.7759     0.0000   840.0000 </r>
       <r>    95.8267     0.0000   840.0000 </r>
       <r>    95.8775     0.0000   840.0000 </r>
       <r>    95.9282     0.0000   840.0000 </r>
       <r>    95.9790     0.0000   840.0000 </r>
       <r>    96.0298     0.0000   840.0000 </r>
       <r>    96.0806     0.0000   840.0000 </r>
       <r>    96.1314     0.0000   840.0000 </r>
       <r>    96.1822     0.0000   840.0000 </r>
       <r>    96.2330     0.0000   840.0000 </r>
       <r>    96.2837     0.0000   840.0000 </r>
       <r>    96.3345     0.0000   840.0000 </r>
       <r>    96.3853     0.0000   840.0000 </r>
       <r>    96.4361     0.0000   840.0000 </r>
       <r>    96.4869     0.0000   840.0000 </r>
       <r>    96.5377     0.0000   840.0000 </r>
       <r>    96.5885     0.0000   840.0000 </r>
       <r>    96.6392     0.0000   840.0000 </r>
       <r>    96.6900     0.0000   840.0000 </r>
       <r>    96.7408     0.0000   840.0000 </r>
       <r>    96.7916     0.0000   840.0000 </r>
       <r>    96.8424     0.0000   840.0000 </r>
       <r>    96.8932     0.0000   840.0000 </r>
       <r>    96.9440     0.0000   840.0000 </r>
       <r>    96.9947     0.0000   840.0000 </r>
       <r>    97.0455     0.0000   840.0000 </r>
       <r>    97.0963     0.0000   840.0000 </r>
       <r>    97.1471     0.0000   840.0000 </r>
       <r>    97.1979     0.0000   840.0000 </r>
       <r>    97.2487     0.0000   840.0000 </r>
       <r>    97.2995     0.0000   840.0000 </r>
       <r>    97.3502     0.0000   840.0000 </r>
       <r>    97.4010     0.0000   840.0000 </r>
       <r>    97.4518     0.0000   840.0000 </r>
       <r>    97.5026     0.0000   840.0000 </r>
       <r>    97.5534     0.0000   840.0000 </r>
       <r>    97.6042     0.0000   840.0000 </r>
       <r>    97.6550     0.0000   840.0000 </r>
       <r>    97.7057     0.0000   840.0000 </r>
       <r>    97.7565     0.0000   840.0000 </r>
      </set>
     </set>
    </array>
   </total>
  </dos>
 </calculation>
 <structure name="finalpos" >
  <crystal>
   <varray name="basis" >
    <v>       4.48084843       2.58701885       0.00000000 </v>
    <v>      -4.48084843       2.58701885       0.00000000 </v>
    <v>       0.00000000       0.00000000       8.52022140 </v>
   </varray>
   <i name="volume">    197.53348383 </i>
   <varray name="rec_basis" >
    <v>       0.11158601       0.19327265       0.00000000 </v>
    <v>      -0.11158601       0.19327265       0.00000000 </v>
    <v>       0.00000000       0.00000000       0.11736784 </v>
   </varray>
  </crystal>
  <varray name="positions" >
   <v>       0.33333300       0.66666600       0.25000000 </v>
   <v>       0.66666600       0.33333300       0.25000000 </v>
   <v>       0.15869124       0.31738348       0.25000000 </v>
   <v>       0.31738348       0.15869124       0.25000000 </v>
   <v>       0.15869124       0.84130776       0.25000000 </v>
   <v>       0.84130776       0.15869124       0.25000000 </v>
   <v>       0.68261552       0.84130776       0.25000000 </v>
   <v>       0.84130776       0.68261552       0.25000000 </v>
  </varray>
 </structure>
</modeling>
