   8   8   0   0
  0.2469169E+02  0.5174038E-09  0.5174038E-09  0.8520222E-09  0.5000000E-15
  1.000000000000000E-004
  CAR 
 BC3                                     
      8.25206937    -19.81616428  301     -2.14851904      1.00000000
    -19.816  0.0000E+00  0.0000E+00
    -19.723  0.0000E+00  0.0000E+00
    -19.629  0.0000E+00  0.0000E+00
    -19.535  0.0000E+00  0.0000E+00
    -19.442  0.0000E+00  0.0000E+00
    -19.348  0.0000E+00  0.0000E+00
    -19.255  0.0000E+00  0.0000E+00
    -19.161  0.0000E+00  0.0000E+00
    -19.068  0.8512E-14  0.7964E-15
    -18.974  0.9526E-10  0.8913E-11
    -18.881  0.2037E-06  0.1907E-07
    -18.787  0.8596E-04  0.8062E-05
    -18.693  0.7528E-02  0.7124E-03
    -18.600  0.1507E+00  0.1482E-01
    -18.506  0.8244E+00  0.9195E-01
    -18.413  0.1676E+01  0.2488E+00
    -18.319  0.2051E+01  0.4407E+00
    -18.226  0.2279E+01  0.6539E+00
    -18.132  0.2653E+01  0.9021E+00
    -18.039  0.3517E+01  0.1231E+01
    -17.945  0.4367E+01  0.1640E+01
    -17.851  0.3009E+01  0.1921E+01
    -17.758  0.7790E+00  0.1994E+01
    -17.664  0.6092E-01  0.2000E+01
    -17.571  0.1191E-02  0.2000E+01
    -17.477  0.5117E-05  0.2000E+01
    -17.384  0.4508E-08  0.2000E+01
    -17.290  0.7797E-12  0.2000E+01
    -17.196  0.0000E+00  0.2000E+01
    -17.103  0.0000E+00  0.2000E+01
    -17.009  0.0000E+00  0.2000E+01
    -16.916  0.0000E+00  0.2000E+01
    -16.822  0.1632E-14  0.2000E+01
    -16.729  0.2489E-10  0.2000E+01
    -16.635  0.6920E-07  0.2000E+01
    -16.542  0.3748E-04  0.2000E+01
    -16.448  0.4316E-02  0.2000E+01
    -16.354  0.1191E+00  0.2012E+01
    -16.261  0.8951E+00  0.2095E+01
    -16.167  0.2269E+01  0.2308E+01
    -16.074  0.3159E+01  0.2603E+01
    -15.980  0.3079E+01  0.2891E+01
    -15.887  0.2253E+01  0.3102E+01
    -15.793  0.1790E+01  0.3269E+01
    -15.699  0.1949E+01  0.3452E+01
    -15.606  0.2021E+01  0.3641E+01
    -15.512  0.1853E+01  0.3814E+01
    -15.419  0.2217E+01  0.4022E+01
    -15.325  0.2537E+01  0.4259E+01
    -15.232  0.2687E+01  0.4510E+01
    -15.138  0.3252E+01  0.4815E+01
    -15.045  0.3660E+01  0.5157E+01
    -14.951  0.2895E+01  0.5428E+01
    -14.857  0.2164E+01  0.5630E+01
    -14.764  0.1866E+01  0.5805E+01
    -14.670  0.1419E+01  0.5938E+01
    -14.577  0.5685E+00  0.5991E+01
    -14.483  0.9281E-01  0.6000E+01
    -14.390  0.4283E-02  0.6000E+01
    -14.296  0.4554E-04  0.6000E+01
    -14.203  0.1006E-06  0.6000E+01
    -14.109  0.4316E-10  0.6000E+01
    -14.015  0.3461E-14  0.6000E+01
    -13.922  0.0000E+00  0.6000E+01
    -13.828  0.0000E+00  0.6000E+01
    -13.735  0.0000E+00  0.6000E+01
    -13.641  0.0000E+00  0.6000E+01
    -13.548  0.0000E+00  0.6000E+01
    -13.454  0.0000E+00  0.6000E+01
    -13.360  0.7656E-13  0.6000E+01
    -13.267  0.6287E-09  0.6000E+01
    -13.173  0.9657E-06  0.6000E+01
    -13.080  0.2868E-03  0.6000E+01
    -12.986  0.1731E-01  0.6002E+01
    -12.893  0.2327E+00  0.6023E+01
    -12.799  0.9011E+00  0.6108E+01
    -12.706  0.1853E+01  0.6281E+01
    -12.612  0.2640E+01  0.6528E+01
    -12.518  0.2434E+01  0.6756E+01
    -12.425  0.2558E+01  0.6995E+01
    -12.331  0.3800E+01  0.7351E+01
    -12.238  0.3499E+01  0.7678E+01
    -12.144  0.1457E+01  0.7814E+01
    -12.051  0.9991E+00  0.7908E+01
    -11.957  0.1415E+01  0.8040E+01
    -11.863  0.1938E+01  0.8222E+01
    -11.770  0.1672E+01  0.8378E+01
    -11.676  0.9102E+00  0.8463E+01
    -11.583  0.6596E+00  0.8525E+01
    -11.489  0.1560E+01  0.8671E+01
    -11.396  0.2471E+01  0.8902E+01
    -11.302  0.1628E+01  0.9054E+01
    -11.209  0.1288E+01  0.9175E+01
    -11.115  0.1844E+01  0.9347E+01
    -11.021  0.2437E+01  0.9575E+01
    -10.928  0.1653E+01  0.9730E+01
    -10.834  0.1113E+01  0.9834E+01
    -10.741  0.1448E+01  0.9970E+01
    -10.647  0.1850E+01  0.1014E+02
    -10.554  0.9175E+00  0.1023E+02
    -10.460  0.3572E+00  0.1026E+02
    -10.367  0.5868E+00  0.1032E+02
    -10.273  0.9338E+00  0.1040E+02
    -10.179  0.6637E+00  0.1047E+02
    -10.086  0.4089E+00  0.1050E+02
     -9.992  0.1134E+00  0.1052E+02
     -9.899  0.1199E+00  0.1053E+02
     -9.805  0.6624E+00  0.1059E+02
     -9.712  0.1710E+01  0.1075E+02
     -9.618  0.1257E+01  0.1087E+02
     -9.524  0.8931E+00  0.1095E+02
     -9.431  0.1200E+01  0.1106E+02
     -9.337  0.1508E+01  0.1120E+02
     -9.244  0.1121E+01  0.1131E+02
     -9.150  0.1495E+01  0.1145E+02
     -9.057  0.2686E+01  0.1170E+02
     -8.963  0.2886E+01  0.1197E+02
     -8.870  0.2403E+01  0.1219E+02
     -8.776  0.1614E+01  0.1235E+02
     -8.682  0.1178E+01  0.1246E+02
     -8.589  0.6515E+00  0.1252E+02
     -8.495  0.1255E+01  0.1263E+02
     -8.402  0.3603E+01  0.1297E+02
     -8.308  0.4348E+01  0.1338E+02
     -8.215  0.2338E+01  0.1360E+02
     -8.121  0.7823E+00  0.1367E+02
     -8.028  0.1231E+01  0.1378E+02
     -7.934  0.2267E+01  0.1400E+02
     -7.840  0.2025E+01  0.1419E+02
     -7.747  0.1678E+01  0.1434E+02
     -7.653  0.2668E+01  0.1459E+02
     -7.560  0.3832E+01  0.1495E+02
     -7.466  0.2258E+01  0.1516E+02
     -7.373  0.1463E+01  0.1530E+02
     -7.279  0.2938E+01  0.1557E+02
     -7.185  0.3286E+01  0.1588E+02
     -7.092  0.2393E+01  0.1611E+02
     -6.998  0.2488E+01  0.1634E+02
     -6.905  0.2108E+01  0.1654E+02
     -6.811  0.1998E+01  0.1672E+02
     -6.718  0.2220E+01  0.1693E+02
     -6.624  0.2982E+01  0.1721E+02
     -6.531  0.4338E+01  0.1762E+02
     -6.437  0.4249E+01  0.1801E+02
     -6.343  0.3574E+01  0.1835E+02
     -6.250  0.4313E+01  0.1875E+02
     -6.156  0.3985E+01  0.1912E+02
     -6.063  0.2447E+01  0.1935E+02
     -5.969  0.1691E+01  0.1951E+02
     -5.876  0.2162E+01  0.1971E+02
     -5.782  0.1669E+01  0.1987E+02
     -5.688  0.1673E+01  0.2003E+02
     -5.595  0.2071E+01  0.2022E+02
     -5.501  0.1434E+01  0.2035E+02
     -5.408  0.1707E+01  0.2051E+02
     -5.314  0.2304E+01  0.2073E+02
     -5.221  0.3288E+01  0.2104E+02
     -5.127  0.4653E+01  0.2147E+02
     -5.034  0.7667E+01  0.2219E+02
     -4.940  0.7864E+01  0.2292E+02
     -4.846  0.5663E+01  0.2345E+02
     -4.753  0.4269E+01  0.2385E+02
     -4.659  0.2063E+01  0.2405E+02
     -4.566  0.1754E+01  0.2421E+02
     -4.472  0.3008E+01  0.2449E+02
     -4.379  0.3480E+01  0.2482E+02
     -4.285  0.2168E+01  0.2502E+02
     -4.192  0.1419E+01  0.2515E+02
     -4.098  0.2330E+01  0.2537E+02
     -4.004  0.3798E+01  0.2573E+02
     -3.911  0.3707E+01  0.2607E+02
     -3.817  0.3234E+01  0.2638E+02
     -3.724  0.2620E+01  0.2662E+02
     -3.630  0.4100E+01  0.2701E+02
     -3.537  0.5410E+01  0.2751E+02
     -3.443  0.4221E+01  0.2791E+02
     -3.349  0.4336E+01  0.2831E+02
     -3.256  0.4929E+01  0.2877E+02
     -3.162  0.3541E+01  0.2910E+02
     -3.069  0.1521E+01  0.2925E+02
     -2.975  0.1489E+01  0.2939E+02
     -2.882  0.1733E+01  0.2955E+02
     -2.788  0.1056E+01  0.2965E+02
     -2.695  0.9702E+00  0.2974E+02
     -2.601  0.1211E+01  0.2985E+02
     -2.507  0.9935E+00  0.2994E+02
     -2.414  0.4887E+00  0.2999E+02
     -2.320  0.1016E+00  0.3000E+02
     -2.227  0.6675E-02  0.3000E+02
     -2.133  0.1110E-03  0.3000E+02
     -2.040  0.6204E-03  0.3000E+02
     -1.946  0.2758E-01  0.3000E+02
     -1.852  0.2769E+00  0.3003E+02
     -1.759  0.7373E+00  0.3010E+02
     -1.665  0.1036E+01  0.3019E+02
     -1.572  0.1893E+01  0.3037E+02
     -1.478  0.2460E+01  0.3060E+02
     -1.385  0.1911E+01  0.3078E+02
     -1.291  0.1774E+01  0.3095E+02
     -1.198  0.2518E+01  0.3118E+02
     -1.104  0.2808E+01  0.3144E+02
     -1.010  0.1622E+01  0.3160E+02
     -0.917  0.6088E+00  0.3165E+02
     -0.823  0.8522E+00  0.3173E+02
     -0.730  0.6186E+00  0.3179E+02
     -0.636  0.6484E+00  0.3185E+02
     -0.543  0.9257E+00  0.3194E+02
     -0.449  0.3337E+00  0.3197E+02
     -0.356  0.2581E-01  0.3197E+02
     -0.262  0.1002E-02  0.3197E+02
     -0.168  0.2256E-01  0.3197E+02
     -0.075  0.1730E+00  0.3199E+02
      0.019  0.2858E+00  0.3202E+02
      0.112  0.1037E+00  0.3203E+02
      0.206  0.7994E-02  0.3203E+02
      0.299  0.2284E-02  0.3203E+02
      0.393  0.7597E-01  0.3204E+02
      0.487  0.5461E+00  0.3209E+02
      0.580  0.8553E+00  0.3217E+02
      0.674  0.4124E+00  0.3220E+02
      0.767  0.4319E+00  0.3225E+02
      0.861  0.3135E+00  0.3227E+02
      0.954  0.3936E+00  0.3231E+02
      1.048  0.1930E+01  0.3249E+02
      1.141  0.3021E+01  0.3277E+02
      1.235  0.2408E+01  0.3300E+02
      1.329  0.2071E+01  0.3319E+02
      1.422  0.2028E+01  0.3338E+02
      1.516  0.1844E+01  0.3356E+02
      1.609  0.1966E+01  0.3374E+02
      1.703  0.1391E+01  0.3387E+02
      1.796  0.9271E+00  0.3396E+02
      1.890  0.1595E+01  0.3411E+02
      1.983  0.2343E+01  0.3433E+02
      2.077  0.1909E+01  0.3450E+02
      2.171  0.1635E+01  0.3466E+02
      2.264  0.1767E+01  0.3482E+02
      2.358  0.1885E+01  0.3500E+02
      2.451  0.2128E+01  0.3520E+02
      2.545  0.2142E+01  0.3540E+02
      2.638  0.1868E+01  0.3557E+02
      2.732  0.1383E+01  0.3570E+02
      2.826  0.2549E+01  0.3594E+02
      2.919  0.3132E+01  0.3623E+02
      3.013  0.2076E+01  0.3643E+02
      3.106  0.1490E+01  0.3657E+02
      3.200  0.1778E+01  0.3673E+02
      3.293  0.2776E+01  0.3699E+02
      3.387  0.3268E+01  0.3730E+02
      3.480  0.1785E+01  0.3747E+02
      3.574  0.1146E+01  0.3757E+02
      3.668  0.1218E+01  0.3769E+02
      3.761  0.1991E+01  0.3787E+02
      3.855  0.2717E+01  0.3813E+02
      3.948  0.2492E+01  0.3836E+02
      4.042  0.1876E+01  0.3854E+02
      4.135  0.1568E+01  0.3868E+02
      4.229  0.1493E+01  0.3882E+02
      4.323  0.1787E+01  0.3899E+02
      4.416  0.2198E+01  0.3920E+02
      4.510  0.2344E+01  0.3941E+02
      4.603  0.2146E+01  0.3962E+02
      4.697  0.2349E+01  0.3984E+02
      4.790  0.3458E+01  0.4016E+02
      4.884  0.3249E+01  0.4046E+02
      4.977  0.2073E+01  0.4066E+02
      5.071  0.2235E+01  0.4087E+02
      5.165  0.3573E+01  0.4120E+02
      5.258  0.3612E+01  0.4154E+02
      5.352  0.2115E+01  0.4174E+02
      5.445  0.1776E+01  0.4190E+02
      5.539  0.2821E+01  0.4217E+02
      5.632  0.3751E+01  0.4252E+02
      5.726  0.3054E+01  0.4280E+02
      5.819  0.2453E+01  0.4303E+02
      5.913  0.3282E+01  0.4334E+02
      6.007  0.3985E+01  0.4371E+02
      6.100  0.3657E+01  0.4405E+02
      6.194  0.3391E+01  0.4437E+02
      6.287  0.3249E+01  0.4468E+02
      6.381  0.3533E+01  0.4501E+02
      6.474  0.4326E+01  0.4541E+02
      6.568  0.6597E+01  0.4603E+02
      6.662  0.5005E+01  0.4650E+02
      6.755  0.4537E+01  0.4692E+02
      6.849  0.5005E+01  0.4739E+02
      6.942  0.3843E+01  0.4775E+02
      7.036  0.2206E+01  0.4796E+02
      7.129  0.4552E+00  0.4800E+02
      7.223  0.2524E-01  0.4800E+02
      7.316  0.3275E-03  0.4800E+02
      7.410  0.8872E-06  0.4800E+02
      7.504  0.4654E-09  0.4800E+02
      7.597  0.4519E-13  0.4800E+02
      7.691  0.0000E+00  0.4800E+02
      7.784  0.0000E+00  0.4800E+02
      7.878  0.0000E+00  0.4800E+02
      7.971  0.0000E+00  0.4800E+02
      8.065  0.0000E+00  0.4800E+02
      8.159  0.0000E+00  0.4800E+02
      8.252  0.0000E+00  0.4800E+02
