    8    8    1    1
  0.2469169E+02  0.5174038E-09  0.5174038E-09  0.8520221E-09  0.5000000E-15
  1.000000000000000E-004
  CAR 
 BC3                                     
     30     19     24
 
  0.0000000E+00  0.0000000E+00  0.0000000E+00  0.6944444E-02
    1      -18.540335   1.000000
    2      -14.648837   1.000000
    3      -14.648783   1.000000
    4      -12.299230   1.000000
    5      -12.299168   1.000000
    6      -11.230714   1.000000
    7       -9.913537   1.000000
    8       -7.345205   1.000000
    9       -7.124903   1.000000
   10       -4.970972   1.000000
   11       -4.970953   1.000000
   12       -3.149284   1.000000
   13       -3.149248   1.000000
   14       -2.466678   0.999997
   15       -2.466574   0.999997
   16       -0.631453   0.000000
   17        1.101126   0.000000
   18        1.101167   0.000000
   19        1.790606   0.000000
   20        1.920612   0.000000
   21        4.520649   0.000000
   22        5.910516   0.000000
   23        6.315094   0.000000
   24        6.315114   0.000000
 
  0.8333333E-01  0.6938894E-17  0.0000000E+00  0.4166667E-01
    1      -18.513225   1.000000
    2      -14.780932   1.000000
    3      -14.691189   1.000000
    4      -12.338412   1.000000
    5      -12.200769   1.000000
    6      -11.096133   1.000000
    7       -9.753132   1.000000
    8       -7.304004   1.000000
    9       -7.182211   1.000000
   10       -5.094393   1.000000
   11       -4.993436   1.000000
   12       -3.273752   1.000000
   13       -3.169701   1.000000
   14       -2.609232   1.000000
   15       -2.535390   1.000000
   16       -0.836129   0.000000
   17        1.160460   0.000000
   18        1.411558   0.000000
   19        1.915326   0.000000
   20        1.972346   0.000000
   21        4.572764   0.000000
   22        5.966714   0.000000
   23        6.386603   0.000000
   24        6.478099   0.000000
 
  0.1666667E+00  0.0000000E+00  0.0000000E+00  0.4166667E-01
    1      -18.434151   1.000000
    2      -15.105935   1.000000
    3      -14.795424   1.000000
    4      -12.454902   1.000000
    5      -11.931655   1.000000
    6      -10.714919   1.000000
    7       -9.323710   1.000000
    8       -7.364530   1.000000
    9       -7.181604   1.000000
   10       -5.440379   1.000000
   11       -5.029595   1.000000
   12       -3.615710   1.000000
   13       -3.223988   1.000000
   14       -3.016467   1.000000
   15       -2.727159   1.000000
   16       -1.183921   0.000000
   17        1.323799   0.000000
   18        1.888079   0.000000
   19        2.127083   0.000000
   20        2.435803   0.000000
   21        4.729412   0.000000
   22        6.121563   0.000000
   23        6.554975   0.000000
   24        6.958974   0.000000
 
  0.2500000E+00 -0.1387779E-16  0.0000000E+00  0.4166667E-01
    1      -18.311111   1.000000
    2      -15.502492   1.000000
    3      -14.917774   1.000000
    4      -12.602608   1.000000
    5      -11.547118   1.000000
    6      -10.172365   1.000000
    7       -8.713939   1.000000
    8       -7.678219   1.000000
    9       -6.982283   1.000000
   10       -5.947320   1.000000
   11       -5.020741   1.000000
   12       -4.093008   1.000000
   13       -3.634017   1.000000
   14       -3.294122   1.000000
   15       -3.002825   1.000000
   16       -1.470705   0.000000
   17        1.552194   0.000000
   18        2.244523   0.000000
   19        2.383884   0.000000
   20        3.318992   0.000000
   21        4.992658   0.000000
   22        6.020053   0.000000
   23        6.356276   0.000000
   24        6.750750   0.000000
 
  0.3333333E+00 -0.8326673E-16  0.0000000E+00  0.4166667E-01
    1      -18.162545   1.000000
    2      -15.879730   1.000000
    3      -15.023886   1.000000
    4      -12.731579   1.000000
    5      -11.109185   1.000000
    6       -9.549131   1.000000
    7       -8.085199   1.000000
    8       -8.010832   1.000000
    9       -6.717719   1.000000
   10       -6.524718   1.000000
   11       -4.941676   1.000000
   12       -4.610270   1.000000
   13       -4.395429   1.000000
   14       -3.360155   1.000000
   15       -3.307228   1.000000
   16       -1.668923   0.000000
   17        1.788819   0.000000
   18        2.568496   0.000000
   19        2.741909   0.000000
   20        4.290336   0.000000
   21        5.172847   0.000000
   22        5.372247   0.000000
   23        6.628524   0.000000
   24        6.920863   0.000000
 
  0.4166667E+00  0.0000000E+00  0.0000000E+00  0.4166667E-01
    1      -18.027200   1.000000
    2      -16.162899   1.000000
    3      -15.093921   1.000000
    4      -12.816044   1.000000
    5      -10.707977   1.000000
    6       -8.904205   1.000000
    7       -8.481561   1.000000
    8       -7.574501   1.000000
    9       -6.792892   1.000000
   10       -6.425267   1.000000
   11       -5.234277   1.000000
   12       -5.073284   1.000000
   13       -4.825501   1.000000
   14       -3.568530   1.000000
   15       -3.406297   1.000000
   16       -1.784725   0.000000
   17        1.969152   0.000000
   18        2.812041   0.000000
   19        3.200580   0.000000
   20        4.417378   0.000000
   21        5.200694   0.000000
   22        5.893693   0.000000
   23        6.744280   0.000000
   24        6.797105   0.000000
 
  0.5000000E+00 -0.2775558E-16  0.0000000E+00  0.2083333E-01
    1      -17.968703   1.000000
    2      -16.272206   1.000000
    3      -15.118213   1.000000
    4      -12.845188   1.000000
    5      -10.523265   1.000000
    6       -8.667411   1.000000
    7       -8.460263   1.000000
    8       -7.853990   1.000000
    9       -6.257857   1.000000
   10       -6.228446   1.000000
   11       -5.975174   1.000000
   12       -5.300376   1.000000
   13       -4.762940   1.000000
   14       -3.680566   1.000000
   15       -3.422749   1.000000
   16       -1.822845   0.000002
   17        2.036871   0.000000
   18        2.904241   0.000000
   19        3.757636   0.000000
   20        3.761064   0.000000
   21        5.829510   0.000000
   22        6.017729   0.000000
   23        6.683263   0.000000
   24        6.832166   0.000000
 
  0.8333333E-01  0.8333333E-01  0.0000000E+00  0.4166667E-01
    1      -18.460101   1.000000
    2      -14.994323   1.000000
    3      -14.780886   1.000000
    4      -12.366969   1.000000
    5      -12.074377   1.000000
    6      -10.825533   1.000000
    7       -9.461589   1.000000
    8       -7.304469   1.000000
    9       -7.222195   1.000000
   10       -5.304456   1.000000
   11       -5.045374   1.000000
   12       -3.486480   1.000000
   13       -3.233966   1.000000
   14       -2.875031   1.000000
   15       -2.674840   1.000000
   16       -1.076470   0.000000
   17        1.192828   0.000000
   18        1.920129   0.000000
   19        2.075587   0.000000
   20        2.172121   0.000000
   21        4.677048   0.000000
   22        6.075135   0.000000
   23        6.537948   0.000000
   24        6.751571   0.000000
 
  0.1666667E+00  0.8333333E-01  0.0000000E+00  0.8333333E-01
    1      -18.358723   1.000000
    2      -15.329661   1.000000
    3      -14.924387   1.000000
    4      -12.437441   1.000000
    5      -11.822086   1.000000
    6      -10.333578   1.000000
    7       -8.953705   1.000000
    8       -7.566907   1.000000
    9       -7.061134   1.000000
   10       -5.674545   1.000000
   11       -5.102717   1.000000
   12       -3.863620   1.000000
   13       -3.365498   1.000000
   14       -3.356462   1.000000
   15       -2.929960   1.000000
   16       -1.303463   0.000000
   17        1.260003   0.000000
   18        2.281397   0.000000
   19        2.427897   0.000000
   20        2.851038   0.000000
   21        4.886083   0.000000
   22        6.278299   0.000000
   23        6.506981   0.000000
   24        6.772218   0.000000
 
  0.2500000E+00  0.8333333E-01  0.0000000E+00  0.8333333E-01
    1      -18.221562   1.000000
    2      -15.700410   1.000000
    3      -15.061652   1.000000
    4      -12.546909   1.000000
    5      -11.438238   1.000000
    6       -9.729546   1.000000
    7       -8.307302   1.000000
    8       -7.955952   1.000000
    9       -6.828094   1.000000
   10       -6.168831   1.000000
   11       -5.088674   1.000000
   12       -4.344571   1.000000
   13       -4.029057   1.000000
   14       -3.480221   1.000000
   15       -3.243514   1.000000
   16       -1.453273   0.000000
   17        1.390965   0.000000
   18        2.588870   0.000000
   19        2.806696   0.000000
   20        3.795056   0.000000
   21        5.202898   0.000000
   22        5.624081   0.000000
   23        6.554884   0.000000
   24        6.766829   0.000000
 
  0.3333333E+00  0.8333333E-01  0.0000000E+00  0.8333333E-01
    1      -18.075639   1.000000
    2      -16.025226   1.000000
    3      -15.163361   1.000000
    4      -12.640382   1.000000
    5      -11.011579   1.000000
    6       -9.096112   1.000000
    7       -8.395606   1.000000
    8       -7.630649   1.000000
    9       -6.668515   1.000000
   10       -6.543472   1.000000
   11       -5.039916   1.000000
   12       -4.833948   1.000000
   13       -4.765888   1.000000
   14       -3.574176   1.000000
   15       -3.549523   1.000000
   16       -1.543978   0.000000
   17        1.537533   0.000000
   18        2.997299   0.000000
   19        3.124311   0.000000
   20        4.755361   0.000000
   21        4.821659   0.000000
   22        5.642139   0.000000
   23        6.579376   0.000000
   24        6.919016   0.000000
 
  0.4166667E+00  0.8333333E-01  0.0000000E+00  0.8333333E-01
    1      -17.972544   1.000000
    2      -16.223670   1.000000
    3      -15.216709   1.000000
    4      -12.691752   1.000000
    5      -10.684090   1.000000
    6       -8.803723   1.000000
    7       -8.439301   1.000000
    8       -7.570882   1.000000
    9       -6.491037   1.000000
   10       -6.283577   1.000000
   11       -5.665092   1.000000
   12       -5.206659   1.000000
   13       -4.863075   1.000000
   14       -3.758978   1.000000
   15       -3.624064   1.000000
   16       -1.588011   0.000000
   17        1.633686   0.000000
   18        3.312016   0.000000
   19        3.506117   0.000000
   20        4.114664   0.000000
   21        5.588610   0.000000
   22        6.133562   0.000000
   23        6.493962   0.000000
   24        6.532050   0.000000
 
  0.1666667E+00  0.1666667E+00  0.0000000E+00  0.4166667E-01
    1      -18.242308   1.000000
    2      -15.594654   1.000000
    3      -15.133427   1.000000
    4      -12.326690   1.000000
    5      -11.718226   1.000000
    6       -9.751437   1.000000
    7       -8.423515   1.000000
    8       -7.929697   1.000000
    9       -6.865708   1.000000
   10       -5.921479   1.000000
   11       -5.246460   1.000000
   12       -4.176061   1.000000
   13       -3.860648   1.000000
   14       -3.632130   1.000000
   15       -3.263900   1.000000
   16       -1.283916   0.000000
   17        1.131150   0.000000
   18        2.537935   0.000000
   19        3.233451   0.000000
   20        3.340608   0.000000
   21        5.145847   0.000000
   22        6.155587   0.000000
   23        6.183483   0.000000
   24        6.548823   0.000000
 
  0.2500000E+00  0.1666667E+00  0.0000000E+00  0.8333333E-01
    1      -18.103694   1.000000
    2      -15.871749   1.000000
    3      -15.317101   1.000000
    4      -12.296824   1.000000
    5      -11.437943   1.000000
    6       -9.120470   1.000000
    7       -8.376057   1.000000
    8       -7.795272   1.000000
    9       -6.608059   1.000000
   10       -6.264366   1.000000
   11       -5.318608   1.000000
   12       -4.571561   1.000000
   13       -4.465012   1.000000
   14       -3.873549   1.000000
   15       -3.639443   1.000000
   16       -1.199563   0.000000
   17        1.063922   0.000000
   18        2.895924   0.000000
   19        3.662169   0.000000
   20        4.250569   0.000000
   21        5.325789   0.000000
   22        5.508858   0.000000
   23        5.925116   0.000000
   24        6.896334   0.000000
 
  0.3333333E+00  0.1666667E+00  0.0000000E+00  0.8333333E-01
    1      -17.980073   1.000000
    2      -16.097622   1.000000
    3      -15.429778   1.000000
    4      -12.321368   1.000000
    5      -11.077141   1.000000
    6       -8.972445   1.000000
    7       -8.332876   1.000000
    8       -7.261293   1.000000
    9       -6.569843   1.000000
   10       -6.328087   1.000000
   11       -5.453732   1.000000
   12       -4.976973   1.000000
   13       -4.974112   1.000000
   14       -4.010021   1.000000
   15       -3.955509   1.000000
   16       -1.130639   0.000000
   17        1.048868   0.000000
   18        3.354641   0.000000
   19        3.951280   0.000000
   20        4.571191   0.000000
   21        5.171677   0.000000
   22        5.776926   0.000000
   23        5.978965   0.000000
   24        6.756434   0.000000
 
  0.4166667E+00  0.1666667E+00  0.0000000E+00  0.4166667E-01
    1      -17.927720   1.000000
    2      -16.187491   1.000000
    3      -15.466994   1.000000
    4      -12.335094   1.000000
    5      -10.891362   1.000000
    6       -9.156796   1.000000
    7       -7.954354   1.000000
    8       -7.355309   1.000000
    9       -6.238143   1.000000
   10       -6.173008   1.000000
   11       -5.941947   1.000000
   12       -5.176727   1.000000
   13       -5.034872   1.000000
   14       -4.090395   1.000000
   15       -4.053283   1.000000
   16       -1.106239   0.000000
   17        1.050226   0.000000
   18        3.909393   0.000000
   19        3.917416   0.000000
   20        4.059391   0.000000
   21        5.727412   0.000000
   22        5.879698   0.000000
   23        6.077698   0.000000
   24        6.509145   0.000000
 
  0.2500000E+00  0.2500000E+00  0.0000000E+00  0.4166667E-01
    1      -17.983758   1.000000
    2      -15.999945   1.000000
    3      -15.566014   1.000000
    4      -12.025608   1.000000
    5      -11.386335   1.000000
    6       -9.029629   1.000000
    7       -8.267655   1.000000
    8       -7.256543   1.000000
    9       -6.379514   1.000000
   10       -6.347714   1.000000
   11       -5.592524   1.000000
   12       -4.868074   1.000000
   13       -4.786303   1.000000
   14       -4.257739   1.000000
   15       -4.096418   1.000000
   16       -0.865972   0.000000
   17        0.747605   0.000000
   18        3.304248   0.000000
   19        4.481357   0.000000
   20        4.715494   0.000000
   21        5.115925   0.000000
   22        5.137987   0.000000
   23        5.898015   0.000000
   24        6.976241   0.000000
 
  0.3333333E+00  0.2500000E+00  0.0000000E+00  0.8333333E-01
    1      -17.903557   1.000000
    2      -16.073424   1.000000
    3      -15.714007   1.000000
    4      -11.903337   1.000000
    5      -11.235643   1.000000
    6       -9.372493   1.000000
    7       -7.653879   1.000000
    8       -6.996973   1.000000
    9       -6.483801   1.000000
   10       -6.127117   1.000000
   11       -5.840465   1.000000
   12       -5.082091   1.000000
   13       -4.986988   1.000000
   14       -4.462799   1.000000
   15       -4.448604   1.000000
   16       -0.603862   0.000000
   17        0.513703   0.000000
   18        3.812922   0.000000
   19        4.421081   0.000000
   20        4.797306   0.000000
   21        5.027477   0.000000
   22        5.498963   0.000000
   23        6.276830   0.000000
   24        6.356563   0.000000
 
  0.3333333E+00  0.3333333E+00  0.0000000E+00  0.1388889E-01
    1      -17.873992   1.000000
    2      -15.941783   1.000000
    3      -15.941748   1.000000
    4      -11.510411   1.000000
    5      -11.510345   1.000000
    6       -9.548980   1.000000
    7       -7.049167   1.000000
    8       -7.049129   1.000000
    9       -6.688028   1.000000
   10       -6.039844   1.000000
   11       -5.908073   1.000000
   12       -4.895522   1.000000
   13       -4.895471   1.000000
   14       -4.815581   1.000000
   15       -4.815564   1.000000
   16       -0.043815   0.000000
   17       -0.043770   0.000000
   18        4.355436   0.000000
   19        4.379007   0.000000
   20        4.379011   0.000000
   21        5.569686   0.000000
   22        5.569706   0.000000
   23        5.700555   0.000000
   24        6.570517   0.000000
