       N       E                     dE             d eps       ncg     rms          rms(c)
DAV:   1     0.159461962588E+03    0.15946E+03   -0.11956E+04   912   0.895E+02
DAV:   2    -0.548602231698E+02   -0.21432E+03   -0.20540E+03  1200   0.212E+02
DAV:   3    -0.731208961021E+02   -0.18261E+02   -0.18166E+02  1284   0.708E+01
DAV:   4    -0.734297754794E+02   -0.30888E+00   -0.30841E+00  1272   0.108E+01
DAV:   5    -0.734401654164E+02   -0.10390E-01   -0.10386E-01  1260   0.176E+00    0.131E+01
DAV:   6    -0.689851169342E+02    0.44550E+01   -0.52617E+00  1200   0.105E+01    0.740E+00
DAV:   7    -0.673419838499E+02    0.16431E+01   -0.37045E+00  1236   0.883E+00    0.223E+00
DAV:   8    -0.672464665061E+02    0.95517E-01   -0.22510E-01  1152   0.218E+00    0.656E-01
DAV:   9    -0.672227319830E+02    0.23735E-01   -0.20763E-02  1200   0.808E-01    0.203E-01
DAV:  10    -0.672178814641E+02    0.48505E-02   -0.15335E-02  1248   0.510E-01    0.153E-01
DAV:  11    -0.672234892772E+02   -0.56078E-02   -0.51249E-03   960   0.365E-01    0.578E-02
DAV:  12    -0.672267051618E+02   -0.32159E-02   -0.53447E-04   972   0.133E-01    0.200E-02
DAV:  13    -0.672275602431E+02   -0.85508E-03   -0.10490E-04   972   0.608E-02    0.993E-03
DAV:  14    -0.672277089916E+02   -0.14875E-03   -0.68524E-06  1128   0.167E-02    0.245E-03
DAV:  15    -0.672277257914E+02   -0.16800E-04   -0.15645E-06  1092   0.603E-03    0.137E-03
DAV:  16    -0.672277299586E+02   -0.41672E-05   -0.16653E-07   792   0.220E-03    0.328E-04
DAV:  17    -0.672277302281E+02   -0.26954E-06   -0.27501E-08  1044   0.917E-04
   1 F= -.67227730E+02 E0= -.67227730E+02  d E =-.656262E-07
