 vasp.5.4.4.18Apr17-6-g9f103f2a35 (build Mar 30 2023 15:39:25) complex          
  
 executed on             LinuxIFC date 2023.06.14  16:30:26
 running on   12 total cores
 distrk:  each k-point on   12 cores,    1 groups
 distr:  one band on NCORES_PER_BAND=   1 cores,   12 groups


--------------------------------------------------------------------------------------------------------


 INCAR:
 POTCAR:    PAW_PBE B 06Sep2000                   
 POTCAR:    PAW_PBE C 08Apr2002                   

 ----------------------------------------------------------------------------- 
|                                                                             |
|           W    W    AA    RRRRR   N    N  II  N    N   GGGG   !!!           |
|           W    W   A  A   R    R  NN   N  II  NN   N  G    G  !!!           |
|           W    W  A    A  R    R  N N  N  II  N N  N  G       !!!           |
|           W WW W  AAAAAA  RRRRR   N  N N  II  N  N N  G  GGG   !            |
|           WW  WW  A    A  R   R   N   NN  II  N   NN  G    G                |
|           W    W  A    A  R    R  N    N  II  N    N   GGGG   !!!           |
|                                                                             |
|      For optimal performance we recommend to set                            |
|        NCORE= 4 - approx SQRT( number of cores)                             |
|      NCORE specifies how many cores store one orbital (NPAR=cpu/NCORE).     |
|      This setting can  greatly improve the performance of VASP for DFT.     |
|      The default,   NCORE=1            might be grossly inefficient         |
|      on modern multi-core architectures or massively parallel machines.     |
|      Do your own testing !!!!                                               |
|      Unfortunately you need to use the default for GW and RPA calculations. |
|      (for HF NCORE is supported but not extensively tested yet)             |
|                                                                             |
 ----------------------------------------------------------------------------- 

 POTCAR:    PAW_PBE B 06Sep2000                   
   SHA256 =  a32ced30f5ae56fd4d10b4325ff17eb3e4e38ee0f4288bc219fb012fddfa6e97 B/
   COPYR  = (c) Copyright 06Sep2000 Georg Kresse                                
   COPYR  = This file is part of the software VASP. Any use, copying, and all ot
   COPYR  = If you do not have a valid VASP license, you may not use, copy or di
   VRHFIN =B: s2p1                                                              
   LEXCH  = PE                                                                  
   EATOM  =    71.1703 eV,    5.2309 Ry                                         
                                                                                
   TITEL  = PAW_PBE B 06Sep2000                                                 
   LULTRA =        F    use ultrasoft PP ?                                      
   IUNSCR =        1    unscreen: 0-lin 1-nonlin 2-no                           
   RPACOR =    1.200    partial core radius                                     
   POMASS =   10.811; ZVAL   =    3.000    mass and valenz                      
   RCORE  =    1.700    outmost cutoff radius                                   
   RWIGS  =    1.710; RWIGS  =    0.905    wigner-seitz radius (au A)           
   ENMAX  =  318.614; ENMIN  =  238.960 eV                                      
   ICORE  =        2    local potential                                         
   LCOR   =        T    correct aug charges                                     
   LPAW   =        T    paw PP                                                  
   EAUG   =  535.514                                                            
   DEXC   =    0.000                                                            
   RMAX   =    1.732    core radius for proj-oper                               
   RAUG   =    1.300    factor for augmentation sphere                          
   RDEP   =    1.757    radius for radial grids                                 
   RDEPT  =    1.436    core radius for aug-charge                              
                                                                                
   Atomic configuration                                                         
    4 entries                                                                   
     n  l   j            E        occ.                                          
     1  0  0.50      -180.5896   2.0000                                         
     2  0  0.50        -9.4431   2.0000                                         
     2  1  0.50        -3.6068   1.0000                                         
     3  2  1.50        -4.0817   0.0000                                         
   Description                                                                  
     l       E           TYP  RCUT    TYP  RCUT                                 
     0     -9.4430752     23  1.500                                             
     0      0.8675899     23  1.500                                             
     1     -3.6067955     23  1.700                                             
     1      6.1086146     23  1.700                                             
     2     -4.0817478      7  1.700                                             
  local pseudopotential read in
  partial core-charges read in
  partial kinetic energy density read in
  atomic valenz-charges read in
  non local Contribution for L=           0  read in
    real space projection operators read in
  non local Contribution for L=           0  read in
    real space projection operators read in
  non local Contribution for L=           1  read in
    real space projection operators read in
  non local Contribution for L=           1  read in
    real space projection operators read in
    PAW grid and wavefunctions read in
 
   number of l-projection  operators is LMAX  =           4
   number of lm-projection operators is LMMAX =           8
 
 POTCAR:    PAW_PBE C 08Apr2002                   
   SHA256 =  253f7b50bb8d59471dbedb8285d89021f4a42ed1a2c5d38a03a736e69125dd95 C/
   COPYR  = (c) Copyright 08Apr2002 Georg Kresse                                
   COPYR  = This file is part of the software VASP. Any use, copying, and all ot
   COPYR  = If you do not have a valid VASP license, you may not use, copy or di
   VRHFIN =C: s2p2                                                              
   LEXCH  = PE                                                                  
   EATOM  =   147.1560 eV,   10.8157 Ry                                         
                                                                                
   TITEL  = PAW_PBE C 08Apr2002                                                 
   LULTRA =        F    use ultrasoft PP ?                                      
   IUNSCR =        1    unscreen: 0-lin 1-nonlin 2-no                           
   RPACOR =    1.200    partial core radius                                     
   POMASS =   12.011; ZVAL   =    4.000    mass and valenz                      
   RCORE  =    1.500    outmost cutoff radius                                   
   RWIGS  =    1.630; RWIGS  =    0.863    wigner-seitz radius (au A)           
   ENMAX  =  400.000; ENMIN  =  300.000 eV                                      
   ICORE  =        2    local potential                                         
   LCOR   =        T    correct aug charges                                     
   LPAW   =        T    paw PP                                                  
   EAUG   =  644.873                                                            
   DEXC   =    0.000                                                            
   RMAX   =    1.529    core radius for proj-oper                               
   RAUG   =    1.300    factor for augmentation sphere                          
   RDEP   =    1.501    radius for radial grids                                 
   RDEPT  =    1.300    core radius for aug-charge                              
                                                                                
   Atomic configuration                                                         
    4 entries                                                                   
     n  l   j            E        occ.                                          
     1  0  0.50      -273.3789   2.0000                                         
     2  0  0.50       -13.7508   2.0000                                         
     2  1  0.50        -5.2854   2.0000                                         
     3  2  1.50        -5.4423   0.0000                                         
   Description                                                                  
     l       E           TYP  RCUT    TYP  RCUT                                 
     0    -13.7508458     23  1.200                                             
     0     -8.2022199     23  1.200                                             
     1     -5.2854383     23  1.500                                             
     1     34.0145650     23  1.500                                             
     2     -5.4423304      7  1.500                                             
  local pseudopotential read in
  partial core-charges read in
  partial kinetic energy density read in
  atomic valenz-charges read in
  non local Contribution for L=           0  read in
    real space projection operators read in
  non local Contribution for L=           0  read in
    real space projection operators read in
  non local Contribution for L=           1  read in
    real space projection operators read in
  non local Contribution for L=           1  read in
    real space projection operators read in
    PAW grid and wavefunctions read in
 
   number of l-projection  operators is LMAX  =           4
   number of lm-projection operators is LMMAX =           8
 
  PAW_PBE B 06Sep2000                   :
 energy of atom  1       EATOM=  -71.1703
 kinetic energy error for atom=    0.0015 (will be added to EATOM!!)
  PAW_PBE C 08Apr2002                   :
 energy of atom  2       EATOM= -147.1560
 kinetic energy error for atom=    0.0116 (will be added to EATOM!!)
 
 
 POSCAR: BC3 with lattice parameter 5.174Ang, len
  positions in direct lattice
  velocities in cartesian coordinates
 exchange correlation table for  LEXCH =        8
   RHO(1)=    0.500       N(1)  =     2000
   RHO(2)=  100.500       N(2)  =     4000
 


--------------------------------------------------------------------------------------------------------


 ion  position               nearest neighbor table
   1  0.333  0.667  0.250-   3 1.57   7 1.57   5 1.57
   2  0.667  0.333  0.250-   4 1.57   8 1.57   6 1.57
   3  0.159  0.317  0.250-   6 1.42   4 1.42   1 1.57
   4  0.317  0.159  0.250-   5 1.42   3 1.42   2 1.57
   5  0.159  0.841  0.250-   4 1.42   8 1.42   1 1.57
   6  0.841  0.159  0.250-   3 1.42   7 1.42   2 1.57
   7  0.683  0.841  0.250-   6 1.42   8 1.42   1 1.57
   8  0.841  0.683  0.250-   5 1.42   7 1.42   2 1.57
 
  LATTYP: Found a hexagonal cell.
 ALAT       =     5.1740377035
 C/A-ratio  =     1.6467258045
  
  Lattice vectors:
  
 A1 = (   4.4808484340,   2.5870188517,   0.0000000000)
 A2 = (  -4.4808484340,   2.5870188517,   0.0000000000)
 A3 = (   0.0000000000,   0.0000000000,   8.5202213998)


Analysis of symmetry for initial positions (statically):
=====================================================================
 Subroutine PRICEL returns:
 Original cell was already a primitive cell.
 

 Routine SETGRP: Setting up the symmetry group for a 
 hexagonal supercell.


 Subroutine GETGRP returns: Found 24 space group operations
 (whereof 12 operations were pure point group operations)
 out of a pool of 24 trial point group operations.


The static configuration has the point symmetry C_6v.
 The point group associated with its full space group is D_6h.


Analysis of symmetry for dynamics (positions and initial velocities):
=====================================================================
 Subroutine PRICEL returns:
 Original cell was already a primitive cell.
 

 Routine SETGRP: Setting up the symmetry group for a 
 hexagonal supercell.


 Subroutine GETGRP returns: Found 24 space group operations
 (whereof 12 operations were pure point group operations)
 out of a pool of 24 trial point group operations.


The dynamic configuration has the point symmetry C_6v.
 The point group associated with its full space group is D_6h.


 Subroutine INISYM returns: Found 24 space group operations
 (whereof 12 operations are pure point group operations),
 and found     1 'primitive' translations

 
 
 KPOINTS: K-points for BC3                        

Automatic generation of k-mesh.
Space group operators:
 irot       det(A)        alpha          n_x          n_y          n_z        tau_x        tau_y        tau_z
    1     1.000000     0.000000     1.000000     0.000000     0.000000     0.000000     0.000000     0.000000
    2     1.000000    60.000000     0.000000     0.000000    -1.000000     0.000000     0.000000     0.000000
    3     1.000000   120.000000     0.000000     0.000000    -1.000000     0.000000     0.000000     0.000000
    4     1.000000   180.000000     0.000000     0.000000     1.000000     0.000000     0.000000     0.000000
    5     1.000000   120.000000     0.000000     0.000000     1.000000     0.000000     0.000000     0.000000
    6     1.000000    60.000000     0.000000     0.000000     1.000000     0.000000     0.000000     0.000000
    7    -1.000000   180.000000     0.866025     0.500000     0.000000     0.000000     0.000000     0.000000
    8    -1.000000   180.000000     1.000000     0.000000     0.000000     0.000000     0.000000     0.000000
    9    -1.000000   180.000000     0.866025    -0.500000     0.000000     0.000000     0.000000     0.000000
   10    -1.000000   180.000000     0.500000    -0.866025     0.000000     0.000000     0.000000     0.000000
   11    -1.000000   180.000000     0.000000     1.000000     0.000000     0.000000     0.000000     0.000000
   12    -1.000000   180.000000    -0.500000    -0.866025     0.000000     0.000000     0.000000     0.000000
   13    -1.000000     0.000000     1.000000     0.000000     0.000000     0.000000     0.000000     0.500000
   14    -1.000000    60.000000     0.000000     0.000000    -1.000000     0.000000     0.000000     0.500000
   15    -1.000000   120.000000     0.000000     0.000000    -1.000000     0.000000     0.000000     0.500000
   16    -1.000000   180.000000     0.000000     0.000000     1.000000     0.000000     0.000000     0.500000
   17    -1.000000   120.000000     0.000000     0.000000     1.000000     0.000000     0.000000     0.500000
   18    -1.000000    60.000000     0.000000     0.000000     1.000000     0.000000     0.000000     0.500000
   19     1.000000   180.000000     0.866025     0.500000     0.000000     0.000000     0.000000     0.500000
   20     1.000000   180.000000     1.000000     0.000000     0.000000     0.000000     0.000000     0.500000
   21     1.000000   180.000000     0.866025    -0.500000     0.000000     0.000000     0.000000     0.500000
   22     1.000000   180.000000     0.500000    -0.866025     0.000000     0.000000     0.000000     0.500000
   23     1.000000   180.000000     0.000000     1.000000     0.000000     0.000000     0.000000     0.500000
   24     1.000000   180.000000    -0.500000    -0.866025     0.000000     0.000000     0.000000     0.500000
 
 Subroutine IBZKPT returns following result:
 ===========================================
 
 Found     19 irreducible k-points:
 
 Following reciprocal coordinates:
            Coordinates               Weight
  0.000000  0.000000  0.000000      1.000000
  0.083333  0.000000  0.000000      6.000000
  0.166667  0.000000  0.000000      6.000000
  0.250000 -0.000000  0.000000      6.000000
  0.333333 -0.000000  0.000000      6.000000
  0.416667  0.000000  0.000000      6.000000
  0.500000 -0.000000  0.000000      3.000000
  0.083333  0.083333  0.000000      6.000000
  0.166667  0.083333  0.000000     12.000000
  0.250000  0.083333  0.000000     12.000000
  0.333333  0.083333  0.000000     12.000000
  0.416667  0.083333  0.000000     12.000000
  0.166667  0.166667  0.000000      6.000000
  0.250000  0.166667  0.000000     12.000000
  0.333333  0.166667  0.000000     12.000000
  0.416667  0.166667  0.000000      6.000000
  0.250000  0.250000  0.000000      6.000000
  0.333333  0.250000  0.000000     12.000000
  0.333333  0.333333  0.000000      2.000000
 
 Following cartesian coordinates:
            Coordinates               Weight
  0.000000  0.000000  0.000000      1.000000
  0.009299  0.016106  0.000000      6.000000
  0.018598  0.032212  0.000000      6.000000
  0.027897  0.048318  0.000000      6.000000
  0.037195  0.064424  0.000000      6.000000
  0.046494  0.080530  0.000000      6.000000
  0.055793  0.096636  0.000000      3.000000
  0.000000  0.032212  0.000000      6.000000
  0.009299  0.048318  0.000000     12.000000
  0.018598  0.064424  0.000000     12.000000
  0.027897  0.080530  0.000000     12.000000
  0.037195  0.096636  0.000000     12.000000
  0.000000  0.064424  0.000000      6.000000
  0.009299  0.080530  0.000000     12.000000
  0.018598  0.096636  0.000000     12.000000
  0.027897  0.112742  0.000000      6.000000
  0.000000  0.096636  0.000000      6.000000
  0.009299  0.112742  0.000000     12.000000
  0.000000  0.128848  0.000000      2.000000
 


--------------------------------------------------------------------------------------------------------




 Dimension of arrays:
   k-points           NKPTS =     19   k-points in BZ     NKDIM =     19   number of bands    NBANDS=     24
   number of dos      NEDOS =    301   number of ions     NIONS =      8
   non local maximal  LDIM  =      4   non local SUM 2l+1 LMDIM =      8
   total plane-waves  NPLWV =  77760
   max r-space proj   IRMAX =      1   max aug-charges    IRDMAX=   6338
   dimension x,y,z NGX =    36 NGY =   36 NGZ =   60
   dimension x,y,z NGXF=    72 NGYF=   72 NGZF=  120
   support grid    NGXF=    72 NGYF=   72 NGZF=  120
   ions per type =               2   6
   NGX,Y,Z   is equivalent  to a cutoff of  11.57, 11.57, 11.71 a.u.
   NGXF,Y,Z  is equivalent  to a cutoff of  23.13, 23.13, 23.41 a.u.

 SYSTEM =  BC3                                     
 POSCAR =  BC3 with lattice parameter 5.174Ang, len

 Startparameter for this run:
   NWRITE =      2    write-flag & timer
   PREC   = accura    normal or accurate (medium, high low for compatibility)
   ISTART =      0    job   : 0-new  1-cont  2-samecut
   ICHARG =      2    charge: 1-file 2-atom 10-const
   ISPIN  =      1    spin polarized calculation?
   LNONCOLLINEAR =      F non collinear calculations
   LSORBIT =      F    spin-orbit coupling
   INIWAV =      1    electr: 0-lowe 1-rand  2-diag
   LASPH  =      F    aspherical Exc in radial PAW
   METAGGA=      F    non-selfconsistent MetaGGA calc.

 Electronic Relaxation 1
   ENCUT  =  450.0 eV  33.07 Ry    5.75 a.u.   8.95  8.95 14.74*2*pi/ulx,y,z
   ENINI  =  450.0     initial cutoff
   ENAUG  =  644.9 eV  augmentation charge cutoff
   NELM   =     60;   NELMIN=  2; NELMDL= -5     # of ELM steps 
   EDIFF  = 0.1E-05   stopping-criterion for ELM
   LREAL  =      F    real-space projection
   NLSPLINE    = F    spline interpolate recip. space projectors
   LCOMPAT=      F    compatible to vasp.4.4
   GGA_COMPAT  = T    GGA compatible to vasp.4.4-vasp.4.6
   LMAXPAW     = -100 max onsite density
   LMAXMIX     =    2 max onsite mixed and CHGCAR
   VOSKOWN=      0    Vosko Wilk Nusair interpolation
   ROPT   =    0.00000   0.00000
 Ionic relaxation
   EDIFFG = -.1E-02   stopping-criterion for IOM
   NSW    =      0    number of steps for IOM
   NBLOCK =      1;   KBLOCK =      1    inner block; outer block 
   IBRION =     -1    ionic relax: 0-MD 1-quasi-New 2-CG
   NFREE  =      0    steps in history (QN), initial steepest desc. (CG)
   ISIF   =      2    stress and relaxation
   IWAVPR =     10    prediction:  0-non 1-charg 2-wave 3-comb
   ISYM   =      2    0-nonsym 1-usesym 2-fastsym
   LCORR  =      T    Harris-Foulkes like correction to forces

   POTIM  = 0.5000    time-step for ionic-motion
   TEIN   =    0.0    initial temperature
   TEBEG  =    0.0;   TEEND  =   0.0 temperature during run
   SMASS  =  -3.00    Nose mass-parameter (am)
   estimated Nose-frequenzy (Omega)   =  0.10E-29 period in steps =****** mass=  -0.612E-27a.u.
   SCALEE = 1.0000    scale energy and forces
   NPACO  =    256;   APACO  = 16.0  distance and # of slots for P.C.
   PSTRESS=    0.0 pullay stress

  Mass of Ions in am
   POMASS =  10.81 12.01
  Ionic Valenz
   ZVAL   =   3.00  4.00
  Atomic Wigner-Seitz radii
   RWIGS  =  -1.00 -1.00
  virtual crystal weights 
   VCA    =   1.00  1.00
   NELECT =      30.0000    total number of electrons
   NUPDOWN=      -1.0000    fix difference up-down

 DOS related values:
   EMIN   =  10.00;   EMAX   =-10.00  energy-range for DOS
   EFERMI =   0.00
   ISMEAR =     0;   SIGMA  =   0.10  broadening in eV -4-tet -1-fermi 0-gaus

 Electronic relaxation 2 (details)
   IALGO  =     38    algorithm
   LDIAG  =      T    sub-space diagonalisation (order eigenvalues)
   LSUBROT=      F    optimize rotation matrix (better conditioning)
   TURBO    =      0    0=normal 1=particle mesh
   IRESTART =      0    0=no restart 2=restart with 2 vectors
   NREBOOT  =      0    no. of reboots
   NMIN     =      0    reboot dimension
   EREF     =   0.00    reference energy to select bands
   IMIX   =      4    mixing-type and parameters
     AMIX     =   0.40;   BMIX     =  1.00
     AMIX_MAG =   1.60;   BMIX_MAG =  1.00
     AMIN     =   0.10
     WC   =   100.;   INIMIX=   1;  MIXPRE=   1;  MAXMIX= -45

 Intra band minimization:
   WEIMIN = 0.0000     energy-eigenvalue tresh-hold
   EBREAK =  0.10E-07  absolut break condition
   DEPER  =   0.30     relativ break condition  

   TIME   =   0.40     timestep for ELM

  volume/ion in A,a.u.               =      24.69       166.63
  Fermi-wavevector in a.u.,A,eV,Ry     =   0.873444  1.650570 10.379942  0.762904
  Thomas-Fermi vector in A             =   1.992835
 
 Write flags
   LWAVE        =      T    write WAVECAR
   LDOWNSAMPLE  =      F    k-point downsampling of WAVECAR
   LCHARG       =      T    write CHGCAR
   LVTOT        =      F    write LOCPOT, total local potential
   LVHAR        =      F    write LOCPOT, Hartree potential only
   LELF         =      F    write electronic localiz. function (ELF)
   LORBIT       =      0    0 simple, 1 ext, 2 COOP (PROOUT), +10 PAW based schemes


 Dipole corrections
   LMONO  =      F    monopole corrections only (constant potential shift)
   LDIPOL =      F    correct potential (dipole corrections)
   IDIPOL =      0    1-x, 2-y, 3-z, 4-all directions 
   EPSILON=  1.0000000 bulk dielectric constant

 Exchange correlation treatment:
   GGA     =    --    GGA type
   LEXCH   =     8    internal setting for exchange type
   VOSKOWN=      0    Vosko Wilk Nusair interpolation
   LHFCALC =     F    Hartree Fock is set to
   LHFONE  =     F    Hartree Fock one center treatment
   AEXX    =    0.0000 exact exchange contribution

 Linear response parameters
   LEPSILON=     F    determine dielectric tensor
   LRPA    =     F    only Hartree local field effects (RPA)
   LNABLA  =     F    use nabla operator in PAW spheres
   LVEL    =     F    velocity operator in full k-point grid
   LINTERFAST=   F  fast interpolation
   KINTER  =     0    interpolate to denser k-point grid
   CSHIFT  =0.1000    complex shift for real part using Kramers Kronig
   OMEGAMAX=  -1.0    maximum frequency
   DEG_THRESHOLD= 0.2000000E-02 threshold for treating states as degnerate
   RTIME   =   -0.100 relaxation time in fs
  (WPLASMAI=    0.000 imaginary part of plasma frequency in eV, 0.658/RTIME)
   DFIELD  = 0.0000000 0.0000000 0.0000000 field for delta impulse in time
 
 Orbital magnetization related:
   ORBITALMAG=     F  switch on orbital magnetization
   LCHIMAG   =     F  perturbation theory with respect to B field
   DQ        =  0.001000  dq finite difference perturbation B field
   LLRAUG    =     F  two centre corrections for induced B field



--------------------------------------------------------------------------------------------------------


 Static calculation
 charge density and potential will be updated during run
 non-spin polarized calculation
 Variant of blocked Davidson
 Davidson routine will perform the subspace rotation
 perform sub-space diagonalisation
    after iterative eigenvector-optimisation
 modified Broyden-mixing scheme, WC =      100.0
 initial mixing is a Kerker type mixing with AMIX =  0.4000 and BMIX =      1.0000
 Hartree-type preconditioning will be used
 using additional bands            9
 reciprocal scheme for non local part
 use partial core corrections
 calculate Harris-corrections to forces 
   (improved forces if not selfconsistent)
 use gradient corrections 
 use of overlap-Matrix (Vanderbilt PP)
 Gauss-broadening in eV      SIGMA  =   0.10


--------------------------------------------------------------------------------------------------------


  energy-cutoff  :      450.00
  volume of cell :      197.53
      direct lattice vectors                 reciprocal lattice vectors
     4.480848434  2.587018852  0.000000000     0.111586010  0.193272654  0.000000000
    -4.480848434  2.587018852  0.000000000    -0.111586010  0.193272654  0.000000000
     0.000000000  0.000000000  8.520221400     0.000000000  0.000000000  0.117367842

  length of vectors
     5.174038000  5.174038000  8.520221400     0.223172034  0.223172034  0.117367842


 
 k-points in units of 2pi/SCALE and weight: K-points for BC3                        
   0.00000000  0.00000000  0.00000000       0.007
   0.00929883  0.01610605  0.00000000       0.042
   0.01859767  0.03221211  0.00000000       0.042
   0.02789650  0.04831816  0.00000000       0.042
   0.03719534  0.06442422  0.00000000       0.042
   0.04649417  0.08053027  0.00000000       0.042
   0.05579301  0.09663633  0.00000000       0.021
   0.00000000  0.03221211  0.00000000       0.042
   0.00929883  0.04831816  0.00000000       0.083
   0.01859767  0.06442422  0.00000000       0.083
   0.02789650  0.08053027  0.00000000       0.083
   0.03719534  0.09663633  0.00000000       0.083
   0.00000000  0.06442422  0.00000000       0.042
   0.00929883  0.08053027  0.00000000       0.083
   0.01859767  0.09663633  0.00000000       0.083
   0.02789650  0.11274238  0.00000000       0.042
   0.00000000  0.09663633  0.00000000       0.042
   0.00929883  0.11274238  0.00000000       0.083
   0.00000000  0.12884844  0.00000000       0.014
 
 k-points in reciprocal lattice and weights: K-points for BC3                        
   0.00000000  0.00000000  0.00000000       0.007
   0.08333333  0.00000000  0.00000000       0.042
   0.16666667  0.00000000  0.00000000       0.042
   0.25000000 -0.00000000  0.00000000       0.042
   0.33333333 -0.00000000  0.00000000       0.042
   0.41666667  0.00000000  0.00000000       0.042
   0.50000000 -0.00000000  0.00000000       0.021
   0.08333333  0.08333333  0.00000000       0.042
   0.16666667  0.08333333  0.00000000       0.083
   0.25000000  0.08333333  0.00000000       0.083
   0.33333333  0.08333333  0.00000000       0.083
   0.41666667  0.08333333  0.00000000       0.083
   0.16666667  0.16666667  0.00000000       0.042
   0.25000000  0.16666667  0.00000000       0.083
   0.33333333  0.16666667  0.00000000       0.083
   0.41666667  0.16666667  0.00000000       0.042
   0.25000000  0.25000000  0.00000000       0.042
   0.33333333  0.25000000  0.00000000       0.083
   0.33333333  0.33333333  0.00000000       0.014
 
 position of ions in fractional coordinates (direct lattice) 
   0.33333300  0.66666600  0.25000000
   0.66666600  0.33333300  0.25000000
   0.15869124  0.31738348  0.25000000
   0.31738348  0.15869124  0.25000000
   0.15869124  0.84130776  0.25000000
   0.84130776  0.15869124  0.25000000
   0.68261552  0.84130776  0.25000000
   0.84130776  0.68261552  0.25000000
 
 position of ions in cartesian coordinates  (Angst):
  -1.49361465  2.58701626  2.13005535
   1.49361465  2.58701626  2.13005535
  -0.71107588  1.23161429  2.13005535
   0.71107588  1.23161429  2.13005535
  -3.05870114  2.58701626  2.13005535
   3.05870114  2.58701626  2.13005535
  -0.71107588  3.94241824  2.13005535
   0.71107588  3.94241824  2.13005535
 


--------------------------------------------------------------------------------------------------------


 k-point  1 :   0.0000 0.0000 0.0000  plane waves:    4271
 k-point  2 :   0.0833 0.0000 0.0000  plane waves:    4257
 k-point  3 :   0.1667 0.0000 0.0000  plane waves:    4273
 k-point  4 :   0.2500-0.0000 0.0000  plane waves:    4286
 k-point  5 :   0.3333-0.0000 0.0000  plane waves:    4272
 k-point  6 :   0.4167 0.0000 0.0000  plane waves:    4280
 k-point  7 :   0.5000-0.0000 0.0000  plane waves:    4280
 k-point  8 :   0.0833 0.0833 0.0000  plane waves:    4273
 k-point  9 :   0.1667 0.0833 0.0000  plane waves:    4261
 k-point 10 :   0.2500 0.0833 0.0000  plane waves:    4277
 k-point 11 :   0.3333 0.0833 0.0000  plane waves:    4283
 k-point 12 :   0.4167 0.0833 0.0000  plane waves:    4292
 k-point 13 :   0.1667 0.1667 0.0000  plane waves:    4267
 k-point 14 :   0.2500 0.1667 0.0000  plane waves:    4287
 k-point 15 :   0.3333 0.1667 0.0000  plane waves:    4297
 k-point 16 :   0.4167 0.1667 0.0000  plane waves:    4305
 k-point 17 :   0.2500 0.2500 0.0000  plane waves:    4283
 k-point 18 :   0.3333 0.2500 0.0000  plane waves:    4306
 k-point 19 :   0.3333 0.3333 0.0000  plane waves:    4323

 maximum and minimum number of plane-waves per node :      4323     4257

 maximum number of plane-waves:      4323
 maximum index in each direction: 
   IXMAX=    8   IYMAX=    8   IZMAX=   14
   IXMIN=   -9   IYMIN=   -9   IZMIN=  -14


 serial   3D FFT for wavefunctions
 parallel 3D FFT for charge:
    minimum data exchange during FFTs selected (reduces bandwidth)


 total amount of memory used by VASP MPI-rank0    51948. kBytes
=======================================================================

   base      :      30000. kBytes
   nonl-proj :      11089. kBytes
   fftplans  :       2090. kBytes
   grid      :       6068. kBytes
   one-center:         24. kBytes
   wavefun   :       2677. kBytes
 
     INWAV:  cpu time    0.0000: real time    0.0000
 Broyden mixing: mesh for mixing (old mesh)
   NGX = 17   NGY = 17   NGZ = 29
  (NGX  = 72   NGY  = 72   NGZ  =120)
  gives a total of   8381 points

 initial charge density was supplied:
 charge density of overlapping atoms calculated
 number of electron      30.0000000 magnetization 
 keeping initial charge density in first step


--------------------------------------------------------------------------------------------------------


 Maximum index for augmentation-charges          403 (set IRDMAX)


--------------------------------------------------------------------------------------------------------


 First call to EWALD:  gamma=   0.304
 Maximum number of real-space cells 3x 3x 2
 Maximum number of reciprocal cells 2x 2x 4

    FEWALD:  cpu time    0.0037: real time    0.0044


--------------------------------------- Iteration      1(   1)  ---------------------------------------


    POTLOK:  cpu time    0.0727: real time    0.0730
    SETDIJ:  cpu time    0.0019: real time    0.0019
     EDDAV:  cpu time    0.5787: real time    0.5788
       DOS:  cpu time    0.0007: real time    0.0007
    --------------------------------------------
      LOOP:  cpu time    0.6540: real time    0.6545

 eigenvalue-minimisations  :   912
 total energy-change (2. order) : 0.1594620E+03  (-0.1195589E+04)
 number of electron      30.0000000 magnetization 
 augmentation part       30.0000000 magnetization 

 Free energy of the ion-electron system (eV)
  ---------------------------------------------------
  alpha Z        PSCENC =        25.67921176
  Ewald energy   TEWEN  =       700.27145080
  -Hartree energ DENC   =     -1524.76618073
  -exchange      EXHF   =         0.00000000
  -V(xc)+E(xc)   XCENC  =        91.14273073
  PAW double counting   =       738.13200929     -739.83780425
  entropy T*S    EENTRO =        -0.01112055
  eigenvalues    EBANDS =      -156.35223398
  atomic energy  EATOM  =      1025.20389953
  Solvation  Ediel_sol  =         0.00000000
  ---------------------------------------------------
  free energy    TOTEN  =       159.46196259 eV

  energy without entropy =      159.47308314  energy(sigma->0) =      159.46752287


--------------------------------------------------------------------------------------------------------




--------------------------------------- Iteration      1(   2)  ---------------------------------------


     EDDAV:  cpu time    0.6926: real time    0.6929
       DOS:  cpu time    0.0002: real time    0.0002
    --------------------------------------------
      LOOP:  cpu time    0.6928: real time    0.6931

 eigenvalue-minimisations  :  1200
 total energy-change (2. order) :-0.2143222E+03  (-0.2053962E+03)
 number of electron      30.0000000 magnetization 
 augmentation part       30.0000000 magnetization 

 Free energy of the ion-electron system (eV)
  ---------------------------------------------------
  alpha Z        PSCENC =        25.67921176
  Ewald energy   TEWEN  =       700.27145080
  -Hartree energ DENC   =     -1524.76618073
  -exchange      EXHF   =         0.00000000
  -V(xc)+E(xc)   XCENC  =        91.14273073
  PAW double counting   =       738.13200929     -739.83780425
  entropy T*S    EENTRO =        -0.00000004
  eigenvalues    EBANDS =      -370.68554026
  atomic energy  EATOM  =      1025.20389953
  Solvation  Ediel_sol  =         0.00000000
  ---------------------------------------------------
  free energy    TOTEN  =       -54.86022317 eV

  energy without entropy =      -54.86022313  energy(sigma->0) =      -54.86022315


--------------------------------------------------------------------------------------------------------




--------------------------------------- Iteration      1(   3)  ---------------------------------------


     EDDAV:  cpu time    0.7361: real time    0.7361
       DOS:  cpu time    0.0002: real time    0.0002
    --------------------------------------------
      LOOP:  cpu time    0.7363: real time    0.7363

 eigenvalue-minimisations  :  1284
 total energy-change (2. order) :-0.1826067E+02  (-0.1816566E+02)
 number of electron      30.0000000 magnetization 
 augmentation part       30.0000000 magnetization 

 Free energy of the ion-electron system (eV)
  ---------------------------------------------------
  alpha Z        PSCENC =        25.67921176
  Ewald energy   TEWEN  =       700.27145080
  -Hartree energ DENC   =     -1524.76618073
  -exchange      EXHF   =         0.00000000
  -V(xc)+E(xc)   XCENC  =        91.14273073
  PAW double counting   =       738.13200929     -739.83780425
  entropy T*S    EENTRO =        -0.00000000
  eigenvalues    EBANDS =      -388.94621322
  atomic energy  EATOM  =      1025.20389953
  Solvation  Ediel_sol  =         0.00000000
  ---------------------------------------------------
  free energy    TOTEN  =       -73.12089610 eV

  energy without entropy =      -73.12089610  energy(sigma->0) =      -73.12089610


--------------------------------------------------------------------------------------------------------




--------------------------------------- Iteration      1(   4)  ---------------------------------------


     EDDAV:  cpu time    0.7324: real time    0.7326
       DOS:  cpu time    0.0002: real time    0.0002
    --------------------------------------------
      LOOP:  cpu time    0.7326: real time    0.7328

 eigenvalue-minimisations  :  1272
 total energy-change (2. order) :-0.3088794E+00  (-0.3084091E+00)
 number of electron      30.0000000 magnetization 
 augmentation part       30.0000000 magnetization 

 Free energy of the ion-electron system (eV)
  ---------------------------------------------------
  alpha Z        PSCENC =        25.67921176
  Ewald energy   TEWEN  =       700.27145080
  -Hartree energ DENC   =     -1524.76618073
  -exchange      EXHF   =         0.00000000
  -V(xc)+E(xc)   XCENC  =        91.14273073
  PAW double counting   =       738.13200929     -739.83780425
  entropy T*S    EENTRO =        -0.00000000
  eigenvalues    EBANDS =      -389.25509260
  atomic energy  EATOM  =      1025.20389953
  Solvation  Ediel_sol  =         0.00000000
  ---------------------------------------------------
  free energy    TOTEN  =       -73.42977548 eV

  energy without entropy =      -73.42977548  energy(sigma->0) =      -73.42977548


--------------------------------------------------------------------------------------------------------




--------------------------------------- Iteration      1(   5)  ---------------------------------------


     EDDAV:  cpu time    0.7193: real time    0.7194
       DOS:  cpu time    0.0002: real time    0.0002
    CHARGE:  cpu time    0.0567: real time    0.0567
    MIXING:  cpu time    0.0010: real time    0.0010
    --------------------------------------------
      LOOP:  cpu time    0.7772: real time    0.7773

 eigenvalue-minimisations  :  1260
 total energy-change (2. order) :-0.1038994E-01  (-0.1038586E-01)
 number of electron      29.9999996 magnetization 
 augmentation part        0.5827731 magnetization 

 Broyden mixing:
  rms(total) = 0.13128E+01    rms(broyden)= 0.13123E+01
  rms(prec ) = 0.18288E+01
  weight for this iteration     100.00

 Free energy of the ion-electron system (eV)
  ---------------------------------------------------
  alpha Z        PSCENC =        25.67921176
  Ewald energy   TEWEN  =       700.27145080
  -Hartree energ DENC   =     -1524.76618073
  -exchange      EXHF   =         0.00000000
  -V(xc)+E(xc)   XCENC  =        91.14273073
  PAW double counting   =       738.13200929     -739.83780425
  entropy T*S    EENTRO =        -0.00000000
  eigenvalues    EBANDS =      -389.26548254
  atomic energy  EATOM  =      1025.20389953
  Solvation  Ediel_sol  =         0.00000000
  ---------------------------------------------------
  free energy    TOTEN  =       -73.44016542 eV

  energy without entropy =      -73.44016542  energy(sigma->0) =      -73.44016542


--------------------------------------------------------------------------------------------------------




--------------------------------------- Iteration      1(   6)  ---------------------------------------


    POTLOK:  cpu time    0.0319: real time    0.0319
    SETDIJ:  cpu time    0.0018: real time    0.0018
     EDDAV:  cpu time    0.6915: real time    0.6915
       DOS:  cpu time    0.0002: real time    0.0002
    CHARGE:  cpu time    0.0556: real time    0.0556
    MIXING:  cpu time    0.0011: real time    0.0011
    --------------------------------------------
      LOOP:  cpu time    0.7820: real time    0.7820

 eigenvalue-minimisations  :  1200
 total energy-change (2. order) : 0.4455048E+01  (-0.5261695E+00)
 number of electron      29.9999996 magnetization 
 augmentation part        0.5389168 magnetization 

 Broyden mixing:
  rms(total) = 0.74002E+00    rms(broyden)= 0.73996E+00
  rms(prec ) = 0.99933E+00
  weight for this iteration     100.00

 eigenvalues of (default mixing * dielectric matrix)
  average eigenvalue GAMMA=   1.9728
  1.9728

 Free energy of the ion-electron system (eV)
  ---------------------------------------------------
  alpha Z        PSCENC =        25.67921176
  Ewald energy   TEWEN  =       700.27145080
  -Hartree energ DENC   =     -1568.78988228
  -exchange      EXHF   =         0.00000000
  -V(xc)+E(xc)   XCENC  =        93.15011435
  PAW double counting   =      1379.52549226    -1381.79118431
  entropy T*S    EENTRO =        -0.00000000
  eigenvalues    EBANDS =      -342.23421904
  atomic energy  EATOM  =      1025.20389953
  Solvation  Ediel_sol  =         0.00000000
  ---------------------------------------------------
  free energy    TOTEN  =       -68.98511693 eV

  energy without entropy =      -68.98511693  energy(sigma->0) =      -68.98511693


--------------------------------------------------------------------------------------------------------




--------------------------------------- Iteration      1(   7)  ---------------------------------------


    POTLOK:  cpu time    0.0310: real time    0.0310
    SETDIJ:  cpu time    0.0018: real time    0.0018
     EDDAV:  cpu time    0.7089: real time    0.7089
       DOS:  cpu time    0.0002: real time    0.0002
    CHARGE:  cpu time    0.0550: real time    0.0550
    MIXING:  cpu time    0.0010: real time    0.0010
    --------------------------------------------
      LOOP:  cpu time    0.7980: real time    0.7980

 eigenvalue-minimisations  :  1236
 total energy-change (2. order) : 0.1643133E+01  (-0.3704489E+00)
 number of electron      29.9999997 magnetization 
 augmentation part        0.5044604 magnetization 

 Broyden mixing:
  rms(total) = 0.22299E+00    rms(broyden)= 0.22289E+00
  rms(prec ) = 0.29260E+00
  weight for this iteration     100.00

 eigenvalues of (default mixing * dielectric matrix)
  average eigenvalue GAMMA=   1.9173
  1.4450  2.3896

 Free energy of the ion-electron system (eV)
  ---------------------------------------------------
  alpha Z        PSCENC =        25.67921176
  Ewald energy   TEWEN  =       700.27145080
  -Hartree energ DENC   =     -1616.30864834
  -exchange      EXHF   =         0.00000000
  -V(xc)+E(xc)   XCENC  =        95.31543328
  PAW double counting   =      2434.52714179    -2437.19788489
  entropy T*S    EENTRO =        -0.00000000
  eigenvalues    EBANDS =      -294.83258778
  atomic energy  EATOM  =      1025.20389953
  Solvation  Ediel_sol  =         0.00000000
  ---------------------------------------------------
  free energy    TOTEN  =       -67.34198385 eV

  energy without entropy =      -67.34198385  energy(sigma->0) =      -67.34198385


--------------------------------------------------------------------------------------------------------




--------------------------------------- Iteration      1(   8)  ---------------------------------------


    POTLOK:  cpu time    0.0311: real time    0.0311
    SETDIJ:  cpu time    0.0017: real time    0.0017
     EDDAV:  cpu time    0.6674: real time    0.6674
       DOS:  cpu time    0.0002: real time    0.0002
    CHARGE:  cpu time    0.0549: real time    0.0549
    MIXING:  cpu time    0.0010: real time    0.0010
    --------------------------------------------
      LOOP:  cpu time    0.7565: real time    0.7565

 eigenvalue-minimisations  :  1152
 total energy-change (2. order) : 0.9551734E-01  (-0.2250968E-01)
 number of electron      29.9999997 magnetization 
 augmentation part        0.4973604 magnetization 

 Broyden mixing:
  rms(total) = 0.65618E-01    rms(broyden)= 0.65599E-01
  rms(prec ) = 0.12640E+00
  weight for this iteration     100.00

 eigenvalues of (default mixing * dielectric matrix)
  average eigenvalue GAMMA=   1.8313
  1.1432  2.1753  2.1753

 Free energy of the ion-electron system (eV)
  ---------------------------------------------------
  alpha Z        PSCENC =        25.67921176
  Ewald energy   TEWEN  =       700.27145080
  -Hartree energ DENC   =     -1629.59432669
  -exchange      EXHF   =         0.00000000
  -V(xc)+E(xc)   XCENC  =        95.77203382
  PAW double counting   =      2844.91754187    -2847.54115021
  entropy T*S    EENTRO =        -0.00000001
  eigenvalues    EBANDS =      -281.95512737
  atomic energy  EATOM  =      1025.20389953
  Solvation  Ediel_sol  =         0.00000000
  ---------------------------------------------------
  free energy    TOTEN  =       -67.24646651 eV

  energy without entropy =      -67.24646649  energy(sigma->0) =      -67.24646650


--------------------------------------------------------------------------------------------------------




--------------------------------------- Iteration      1(   9)  ---------------------------------------


    POTLOK:  cpu time    0.0312: real time    0.0312
    SETDIJ:  cpu time    0.0017: real time    0.0017
     EDDAV:  cpu time    0.6996: real time    0.6996
       DOS:  cpu time    0.0003: real time    0.0003
    CHARGE:  cpu time    0.0563: real time    0.0562
    MIXING:  cpu time    0.0011: real time    0.0011
    --------------------------------------------
      LOOP:  cpu time    0.7901: real time    0.7901

 eigenvalue-minimisations  :  1200
 total energy-change (2. order) : 0.2373452E-01  (-0.2076316E-02)
 number of electron      29.9999997 magnetization 
 augmentation part        0.4976520 magnetization 

 Broyden mixing:
  rms(total) = 0.20262E-01    rms(broyden)= 0.20257E-01
  rms(prec ) = 0.69950E-01
  weight for this iteration     100.00

 eigenvalues of (default mixing * dielectric matrix)
  average eigenvalue GAMMA=   1.8529
  1.1018  2.3855  2.3855  1.5390

 Free energy of the ion-electron system (eV)
  ---------------------------------------------------
  alpha Z        PSCENC =        25.67921176
  Ewald energy   TEWEN  =       700.27145080
  -Hartree energ DENC   =     -1635.58246470
  -exchange      EXHF   =         0.00000000
  -V(xc)+E(xc)   XCENC  =        95.85704050
  PAW double counting   =      2932.73293073    -2935.26841854
  entropy T*S    EENTRO =        -0.00000002
  eigenvalues    EBANDS =      -276.11638205
  atomic energy  EATOM  =      1025.20389953
  Solvation  Ediel_sol  =         0.00000000
  ---------------------------------------------------
  free energy    TOTEN  =       -67.22273198 eV

  energy without entropy =      -67.22273197  energy(sigma->0) =      -67.22273198


--------------------------------------------------------------------------------------------------------




--------------------------------------- Iteration      1(  10)  ---------------------------------------


    POTLOK:  cpu time    0.0317: real time    0.0317
    SETDIJ:  cpu time    0.0018: real time    0.0018
     EDDAV:  cpu time    0.7133: real time    0.7133
       DOS:  cpu time    0.0002: real time    0.0002
    CHARGE:  cpu time    0.0551: real time    0.0551
    MIXING:  cpu time    0.0011: real time    0.0011
    --------------------------------------------
      LOOP:  cpu time    0.8031: real time    0.8031

 eigenvalue-minimisations  :  1248
 total energy-change (2. order) : 0.4850519E-02  (-0.1533522E-02)
 number of electron      29.9999997 magnetization 
 augmentation part        0.4960693 magnetization 

 Broyden mixing:
  rms(total) = 0.15318E-01    rms(broyden)= 0.15313E-01
  rms(prec ) = 0.32412E-01
  weight for this iteration     100.00

 eigenvalues of (default mixing * dielectric matrix)
  average eigenvalue GAMMA=   2.0557
  3.3010  2.6727  1.0031  1.9664  1.3352

 Free energy of the ion-electron system (eV)
  ---------------------------------------------------
  alpha Z        PSCENC =        25.67921176
  Ewald energy   TEWEN  =       700.27145080
  -Hartree energ DENC   =     -1643.32180511
  -exchange      EXHF   =         0.00000000
  -V(xc)+E(xc)   XCENC  =        96.00239654
  PAW double counting   =      2923.86459061    -2926.38446141
  entropy T*S    EENTRO =        -0.00000006
  eigenvalues    EBANDS =      -268.53316413
  atomic energy  EATOM  =      1025.20389953
  Solvation  Ediel_sol  =         0.00000000
  ---------------------------------------------------
  free energy    TOTEN  =       -67.21788146 eV

  energy without entropy =      -67.21788141  energy(sigma->0) =      -67.21788144


--------------------------------------------------------------------------------------------------------




--------------------------------------- Iteration      1(  11)  ---------------------------------------


    POTLOK:  cpu time    0.0313: real time    0.0313
    SETDIJ:  cpu time    0.0017: real time    0.0017
     EDDAV:  cpu time    0.5816: real time    0.5816
       DOS:  cpu time    0.0002: real time    0.0002
    CHARGE:  cpu time    0.0550: real time    0.0550
    MIXING:  cpu time    0.0011: real time    0.0011
    --------------------------------------------
      LOOP:  cpu time    0.6708: real time    0.6708

 eigenvalue-minimisations  :   960
 total energy-change (2. order) :-0.5607813E-02  (-0.5124941E-03)
 number of electron      29.9999997 magnetization 
 augmentation part        0.4958045 magnetization 

 Broyden mixing:
  rms(total) = 0.57831E-02    rms(broyden)= 0.57791E-02
  rms(prec ) = 0.10675E-01
  weight for this iteration     100.00

 eigenvalues of (default mixing * dielectric matrix)
  average eigenvalue GAMMA=   2.2938
  5.2489  0.9618  2.4345  2.1389  1.2537  1.7253

 Free energy of the ion-electron system (eV)
  ---------------------------------------------------
  alpha Z        PSCENC =        25.67921176
  Ewald energy   TEWEN  =       700.27145080
  -Hartree energ DENC   =     -1646.18092857
  -exchange      EXHF   =         0.00000000
  -V(xc)+E(xc)   XCENC  =        96.02907528
  PAW double counting   =      2889.24459683    -2891.77160807
  entropy T*S    EENTRO =        -0.00000006
  eigenvalues    EBANDS =      -265.69918676
  atomic energy  EATOM  =      1025.20389953
  Solvation  Ediel_sol  =         0.00000000
  ---------------------------------------------------
  free energy    TOTEN  =       -67.22348928 eV

  energy without entropy =      -67.22348922  energy(sigma->0) =      -67.22348925


--------------------------------------------------------------------------------------------------------




--------------------------------------- Iteration      1(  12)  ---------------------------------------


    POTLOK:  cpu time    0.0312: real time    0.0312
    SETDIJ:  cpu time    0.0017: real time    0.0017
     EDDAV:  cpu time    0.5863: real time    0.5863
       DOS:  cpu time    0.0002: real time    0.0002
    CHARGE:  cpu time    0.0549: real time    0.0549
    MIXING:  cpu time    0.0011: real time    0.0011
    --------------------------------------------
      LOOP:  cpu time    0.6755: real time    0.6755

 eigenvalue-minimisations  :   972
 total energy-change (2. order) :-0.3215885E-02  (-0.5344685E-04)
 number of electron      29.9999997 magnetization 
 augmentation part        0.4956937 magnetization 

 Broyden mixing:
  rms(total) = 0.19978E-02    rms(broyden)= 0.19961E-02
  rms(prec ) = 0.39203E-02
  weight for this iteration     100.00

 eigenvalues of (default mixing * dielectric matrix)
  average eigenvalue GAMMA=   2.3460
  5.9143  2.7719  2.3517  1.9130  0.9802  1.2155  1.2752

 Free energy of the ion-electron system (eV)
  ---------------------------------------------------
  alpha Z        PSCENC =        25.67921176
  Ewald energy   TEWEN  =       700.27145080
  -Hartree energ DENC   =     -1647.00224095
  -exchange      EXHF   =         0.00000000
  -V(xc)+E(xc)   XCENC  =        96.03524337
  PAW double counting   =      2893.60557185    -2896.13233614
  entropy T*S    EENTRO =        -0.00000007
  eigenvalues    EBANDS =      -264.88750530
  atomic energy  EATOM  =      1025.20389953
  Solvation  Ediel_sol  =         0.00000000
  ---------------------------------------------------
  free energy    TOTEN  =       -67.22670516 eV

  energy without entropy =      -67.22670509  energy(sigma->0) =      -67.22670513


--------------------------------------------------------------------------------------------------------




--------------------------------------- Iteration      1(  13)  ---------------------------------------


    POTLOK:  cpu time    0.0311: real time    0.0311
    SETDIJ:  cpu time    0.0018: real time    0.0018
     EDDAV:  cpu time    0.5870: real time    0.5870
       DOS:  cpu time    0.0002: real time    0.0002
    CHARGE:  cpu time    0.0548: real time    0.0548
    MIXING:  cpu time    0.0011: real time    0.0011
    --------------------------------------------
      LOOP:  cpu time    0.6761: real time    0.6761

 eigenvalue-minimisations  :   972
 total energy-change (2. order) :-0.8550812E-03  (-0.1049022E-04)
 number of electron      29.9999997 magnetization 
 augmentation part        0.4956227 magnetization 

 Broyden mixing:
  rms(total) = 0.99318E-03    rms(broyden)= 0.99303E-03
  rms(prec ) = 0.13340E-02
  weight for this iteration     100.00

 eigenvalues of (default mixing * dielectric matrix)
  average eigenvalue GAMMA=   2.3436
  6.3339  2.9476  2.4360  2.0634  1.6619  1.0117  1.0117  1.2829

 Free energy of the ion-electron system (eV)
  ---------------------------------------------------
  alpha Z        PSCENC =        25.67921176
  Ewald energy   TEWEN  =       700.27145080
  -Hartree energ DENC   =     -1646.72235386
  -exchange      EXHF   =         0.00000000
  -V(xc)+E(xc)   XCENC  =        96.02443856
  PAW double counting   =      2892.76056936    -2895.28887032
  entropy T*S    EENTRO =        -0.00000007
  eigenvalues    EBANDS =      -265.15590600
  atomic energy  EATOM  =      1025.20389953
  Solvation  Ediel_sol  =         0.00000000
  ---------------------------------------------------
  free energy    TOTEN  =       -67.22756024 eV

  energy without entropy =      -67.22756018  energy(sigma->0) =      -67.22756021


--------------------------------------------------------------------------------------------------------




--------------------------------------- Iteration      1(  14)  ---------------------------------------


    POTLOK:  cpu time    0.0313: real time    0.0313
    SETDIJ:  cpu time    0.0017: real time    0.0017
     EDDAV:  cpu time    0.6555: real time    0.6555
       DOS:  cpu time    0.0002: real time    0.0002
    CHARGE:  cpu time    0.0549: real time    0.0549
    MIXING:  cpu time    0.0012: real time    0.0012
    --------------------------------------------
      LOOP:  cpu time    0.7449: real time    0.7449

 eigenvalue-minimisations  :  1128
 total energy-change (2. order) :-0.1487485E-03  (-0.6852442E-06)
 number of electron      29.9999997 magnetization 
 augmentation part        0.4956241 magnetization 

 Broyden mixing:
  rms(total) = 0.24545E-03    rms(broyden)= 0.24544E-03
  rms(prec ) = 0.36248E-03
  weight for this iteration     100.00

 eigenvalues of (default mixing * dielectric matrix)
  average eigenvalue GAMMA=   2.2946
  6.4032  3.2467  2.5023  2.1423  1.9287  0.9536  1.0231  1.2256  1.2256

 Free energy of the ion-electron system (eV)
  ---------------------------------------------------
  alpha Z        PSCENC =        25.67921176
  Ewald energy   TEWEN  =       700.27145080
  -Hartree energ DENC   =     -1646.75537063
  -exchange      EXHF   =         0.00000000
  -V(xc)+E(xc)   XCENC  =        96.02423846
  PAW double counting   =      2894.57693633    -2897.10413057
  entropy T*S    EENTRO =        -0.00000007
  eigenvalues    EBANDS =      -265.12394460
  atomic energy  EATOM  =      1025.20389953
  Solvation  Ediel_sol  =         0.00000000
  ---------------------------------------------------
  free energy    TOTEN  =       -67.22770899 eV

  energy without entropy =      -67.22770893  energy(sigma->0) =      -67.22770896


--------------------------------------------------------------------------------------------------------




--------------------------------------- Iteration      1(  15)  ---------------------------------------


    POTLOK:  cpu time    0.0311: real time    0.0311
    SETDIJ:  cpu time    0.0018: real time    0.0018
     EDDAV:  cpu time    0.6407: real time    0.6407
       DOS:  cpu time    0.0003: real time    0.0002
    CHARGE:  cpu time    0.0549: real time    0.0549
    MIXING:  cpu time    0.0012: real time    0.0012
    --------------------------------------------
      LOOP:  cpu time    0.7300: real time    0.7300

 eigenvalue-minimisations  :  1092
 total energy-change (2. order) :-0.1679978E-04  (-0.1564487E-06)
 number of electron      29.9999997 magnetization 
 augmentation part        0.4956195 magnetization 

 Broyden mixing:
  rms(total) = 0.13723E-03    rms(broyden)= 0.13721E-03
  rms(prec ) = 0.16775E-03
  weight for this iteration     100.00

 eigenvalues of (default mixing * dielectric matrix)
  average eigenvalue GAMMA=   2.2992
  6.4434  3.2532  2.4188  2.4188  2.2218  1.8416  0.9784  0.9784  1.2726  1.1650

 Free energy of the ion-electron system (eV)
  ---------------------------------------------------
  alpha Z        PSCENC =        25.67921176
  Ewald energy   TEWEN  =       700.27145080
  -Hartree energ DENC   =     -1646.75220537
  -exchange      EXHF   =         0.00000000
  -V(xc)+E(xc)   XCENC  =        96.02419534
  PAW double counting   =      2894.63462069    -2897.16183577
  entropy T*S    EENTRO =        -0.00000007
  eigenvalues    EBANDS =      -265.12706270
  atomic energy  EATOM  =      1025.20389953
  Solvation  Ediel_sol  =         0.00000000
  ---------------------------------------------------
  free energy    TOTEN  =       -67.22772579 eV

  energy without entropy =      -67.22772573  energy(sigma->0) =      -67.22772576


--------------------------------------------------------------------------------------------------------




--------------------------------------- Iteration      1(  16)  ---------------------------------------


    POTLOK:  cpu time    0.0311: real time    0.0312
    SETDIJ:  cpu time    0.0018: real time    0.0018
     EDDAV:  cpu time    0.5142: real time    0.5142
       DOS:  cpu time    0.0002: real time    0.0002
    CHARGE:  cpu time    0.0549: real time    0.0549
    MIXING:  cpu time    0.0012: real time    0.0012
    --------------------------------------------
      LOOP:  cpu time    0.6035: real time    0.6035

 eigenvalue-minimisations  :   792
 total energy-change (2. order) :-0.4167212E-05  (-0.1665336E-07)
 number of electron      29.9999997 magnetization 
 augmentation part        0.4956189 magnetization 

 Broyden mixing:
  rms(total) = 0.32752E-04    rms(broyden)= 0.32749E-04
  rms(prec ) = 0.40856E-04
  weight for this iteration     100.00

 eigenvalues of (default mixing * dielectric matrix)
  average eigenvalue GAMMA=   2.2229
  6.4286  3.3993  2.8147  2.4528  2.1020  1.8942  1.2466  1.1552  0.9792  0.9792
  1.0004

 Free energy of the ion-electron system (eV)
  ---------------------------------------------------
  alpha Z        PSCENC =        25.67921176
  Ewald energy   TEWEN  =       700.27145080
  -Hartree energ DENC   =     -1646.75059910
  -exchange      EXHF   =         0.00000000
  -V(xc)+E(xc)   XCENC  =        96.02419718
  PAW double counting   =      2894.34549113    -2896.87274072
  entropy T*S    EENTRO =        -0.00000007
  eigenvalues    EBANDS =      -265.12864046
  atomic energy  EATOM  =      1025.20389953
  Solvation  Ediel_sol  =         0.00000000
  ---------------------------------------------------
  free energy    TOTEN  =       -67.22772996 eV

  energy without entropy =      -67.22772989  energy(sigma->0) =      -67.22772993


--------------------------------------------------------------------------------------------------------




--------------------------------------- Iteration      1(  17)  ---------------------------------------


    POTLOK:  cpu time    0.0312: real time    0.0312
    SETDIJ:  cpu time    0.0018: real time    0.0017
     EDDAV:  cpu time    0.6305: real time    0.6305
       DOS:  cpu time    0.0002: real time    0.0002
    --------------------------------------------
      LOOP:  cpu time    0.6637: real time    0.6637

 eigenvalue-minimisations  :  1044
 total energy-change (2. order) :-0.2695444E-06  (-0.2750143E-08)
 number of electron      29.9999997 magnetization 
 augmentation part        0.4956189 magnetization 

 Free energy of the ion-electron system (eV)
  ---------------------------------------------------
  alpha Z        PSCENC =        25.67921176
  Ewald energy   TEWEN  =       700.27145080
  -Hartree energ DENC   =     -1646.75287754
  -exchange      EXHF   =         0.00000000
  -V(xc)+E(xc)   XCENC  =        96.02425692
  PAW double counting   =      2894.38857850    -2896.91579167
  entropy T*S    EENTRO =        -0.00000007
  eigenvalues    EBANDS =      -265.12645845
  atomic energy  EATOM  =      1025.20389953
  Solvation  Ediel_sol  =         0.00000000
  ---------------------------------------------------
  free energy    TOTEN  =       -67.22773023 eV

  energy without entropy =      -67.22773016  energy(sigma->0) =      -67.22773020


--------------------------------------------------------------------------------------------------------




 average (electrostatic) potential at core
  the test charge radii are     0.7672  0.6991
  (the norm of the test charge is              1.0000)
       1 -33.2461       2 -33.2461       3 -55.7473       4 -55.7473       5 -55.7473
       6 -55.7473       7 -55.7473       8 -55.7473
 
 
 
 E-fermi :  -2.1485     XC(G=0):  -4.8149     alpha+bet : -4.1680


 k-point     1 :       0.0000    0.0000    0.0000
  band No.  band energies     occupation 
      1     -18.5403      2.00000
      2     -14.6488      2.00000
      3     -14.6488      2.00000
      4     -12.2992      2.00000
      5     -12.2992      2.00000
      6     -11.2307      2.00000
      7      -9.9135      2.00000
      8      -7.3452      2.00000
      9      -7.1249      2.00000
     10      -4.9710      2.00000
     11      -4.9710      2.00000
     12      -3.1493      2.00000
     13      -3.1492      2.00000
     14      -2.4667      1.99999
     15      -2.4666      1.99999
     16      -0.6315      0.00000
     17       1.1011      0.00000
     18       1.1012      0.00000
     19       1.7906      0.00000
     20       1.9206      0.00000
     21       4.5206      0.00000
     22       5.9105      0.00000
     23       6.3151      0.00000
     24       6.3151      0.00000

 k-point     2 :       0.0833    0.0000    0.0000
  band No.  band energies     occupation 
      1     -18.5132      2.00000
      2     -14.7809      2.00000
      3     -14.6912      2.00000
      4     -12.3384      2.00000
      5     -12.2008      2.00000
      6     -11.0961      2.00000
      7      -9.7531      2.00000
      8      -7.3040      2.00000
      9      -7.1822      2.00000
     10      -5.0944      2.00000
     11      -4.9934      2.00000
     12      -3.2738      2.00000
     13      -3.1697      2.00000
     14      -2.6092      2.00000
     15      -2.5354      2.00000
     16      -0.8361      0.00000
     17       1.1605      0.00000
     18       1.4116      0.00000
     19       1.9153      0.00000
     20       1.9723      0.00000
     21       4.5728      0.00000
     22       5.9667      0.00000
     23       6.3866      0.00000
     24       6.4781      0.00000

 k-point     3 :       0.1667    0.0000    0.0000
  band No.  band energies     occupation 
      1     -18.4342      2.00000
      2     -15.1059      2.00000
      3     -14.7954      2.00000
      4     -12.4549      2.00000
      5     -11.9317      2.00000
      6     -10.7149      2.00000
      7      -9.3237      2.00000
      8      -7.3645      2.00000
      9      -7.1816      2.00000
     10      -5.4404      2.00000
     11      -5.0296      2.00000
     12      -3.6157      2.00000
     13      -3.2240      2.00000
     14      -3.0165      2.00000
     15      -2.7272      2.00000
     16      -1.1839      0.00000
     17       1.3238      0.00000
     18       1.8881      0.00000
     19       2.1271      0.00000
     20       2.4358      0.00000
     21       4.7294      0.00000
     22       6.1216      0.00000
     23       6.5550      0.00000
     24       6.9590      0.00000

 k-point     4 :       0.2500   -0.0000    0.0000
  band No.  band energies     occupation 
      1     -18.3111      2.00000
      2     -15.5025      2.00000
      3     -14.9178      2.00000
      4     -12.6026      2.00000
      5     -11.5471      2.00000
      6     -10.1724      2.00000
      7      -8.7139      2.00000
      8      -7.6782      2.00000
      9      -6.9823      2.00000
     10      -5.9473      2.00000
     11      -5.0207      2.00000
     12      -4.0930      2.00000
     13      -3.6340      2.00000
     14      -3.2941      2.00000
     15      -3.0028      2.00000
     16      -1.4707      0.00000
     17       1.5522      0.00000
     18       2.2445      0.00000
     19       2.3839      0.00000
     20       3.3190      0.00000
     21       4.9927      0.00000
     22       6.0201      0.00000
     23       6.3563      0.00000
     24       6.7507      0.00000

 k-point     5 :       0.3333   -0.0000    0.0000
  band No.  band energies     occupation 
      1     -18.1625      2.00000
      2     -15.8797      2.00000
      3     -15.0239      2.00000
      4     -12.7316      2.00000
      5     -11.1092      2.00000
      6      -9.5491      2.00000
      7      -8.0852      2.00000
      8      -8.0108      2.00000
      9      -6.7177      2.00000
     10      -6.5247      2.00000
     11      -4.9417      2.00000
     12      -4.6103      2.00000
     13      -4.3954      2.00000
     14      -3.3602      2.00000
     15      -3.3072      2.00000
     16      -1.6689      0.00000
     17       1.7888      0.00000
     18       2.5685      0.00000
     19       2.7419      0.00000
     20       4.2903      0.00000
     21       5.1728      0.00000
     22       5.3722      0.00000
     23       6.6285      0.00000
     24       6.9209      0.00000

 k-point     6 :       0.4167    0.0000    0.0000
  band No.  band energies     occupation 
      1     -18.0272      2.00000
      2     -16.1629      2.00000
      3     -15.0939      2.00000
      4     -12.8160      2.00000
      5     -10.7080      2.00000
      6      -8.9042      2.00000
      7      -8.4816      2.00000
      8      -7.5745      2.00000
      9      -6.7929      2.00000
     10      -6.4253      2.00000
     11      -5.2343      2.00000
     12      -5.0733      2.00000
     13      -4.8255      2.00000
     14      -3.5685      2.00000
     15      -3.4063      2.00000
     16      -1.7847      0.00000
     17       1.9692      0.00000
     18       2.8120      0.00000
     19       3.2006      0.00000
     20       4.4174      0.00000
     21       5.2007      0.00000
     22       5.8937      0.00000
     23       6.7443      0.00000
     24       6.7971      0.00000

 k-point     7 :       0.5000   -0.0000    0.0000
  band No.  band energies     occupation 
      1     -17.9687      2.00000
      2     -16.2722      2.00000
      3     -15.1182      2.00000
      4     -12.8452      2.00000
      5     -10.5233      2.00000
      6      -8.6674      2.00000
      7      -8.4603      2.00000
      8      -7.8540      2.00000
      9      -6.2579      2.00000
     10      -6.2284      2.00000
     11      -5.9752      2.00000
     12      -5.3004      2.00000
     13      -4.7629      2.00000
     14      -3.6806      2.00000
     15      -3.4227      2.00000
     16      -1.8228      0.00000
     17       2.0369      0.00000
     18       2.9042      0.00000
     19       3.7576      0.00000
     20       3.7611      0.00000
     21       5.8295      0.00000
     22       6.0177      0.00000
     23       6.6833      0.00000
     24       6.8322      0.00000

 k-point     8 :       0.0833    0.0833    0.0000
  band No.  band energies     occupation 
      1     -18.4601      2.00000
      2     -14.9943      2.00000
      3     -14.7809      2.00000
      4     -12.3670      2.00000
      5     -12.0744      2.00000
      6     -10.8255      2.00000
      7      -9.4616      2.00000
      8      -7.3045      2.00000
      9      -7.2222      2.00000
     10      -5.3045      2.00000
     11      -5.0454      2.00000
     12      -3.4865      2.00000
     13      -3.2340      2.00000
     14      -2.8750      2.00000
     15      -2.6748      2.00000
     16      -1.0765      0.00000
     17       1.1928      0.00000
     18       1.9201      0.00000
     19       2.0756      0.00000
     20       2.1721      0.00000
     21       4.6770      0.00000
     22       6.0751      0.00000
     23       6.5379      0.00000
     24       6.7516      0.00000

 k-point     9 :       0.1667    0.0833    0.0000
  band No.  band energies     occupation 
      1     -18.3587      2.00000
      2     -15.3297      2.00000
      3     -14.9244      2.00000
      4     -12.4374      2.00000
      5     -11.8221      2.00000
      6     -10.3336      2.00000
      7      -8.9537      2.00000
      8      -7.5669      2.00000
      9      -7.0611      2.00000
     10      -5.6745      2.00000
     11      -5.1027      2.00000
     12      -3.8636      2.00000
     13      -3.3655      2.00000
     14      -3.3565      2.00000
     15      -2.9300      2.00000
     16      -1.3035      0.00000
     17       1.2600      0.00000
     18       2.2814      0.00000
     19       2.4279      0.00000
     20       2.8510      0.00000
     21       4.8861      0.00000
     22       6.2783      0.00000
     23       6.5070      0.00000
     24       6.7722      0.00000

 k-point    10 :       0.2500    0.0833    0.0000
  band No.  band energies     occupation 
      1     -18.2216      2.00000
      2     -15.7004      2.00000
      3     -15.0617      2.00000
      4     -12.5469      2.00000
      5     -11.4382      2.00000
      6      -9.7295      2.00000
      7      -8.3073      2.00000
      8      -7.9560      2.00000
      9      -6.8281      2.00000
     10      -6.1688      2.00000
     11      -5.0887      2.00000
     12      -4.3446      2.00000
     13      -4.0291      2.00000
     14      -3.4802      2.00000
     15      -3.2435      2.00000
     16      -1.4533      0.00000
     17       1.3910      0.00000
     18       2.5889      0.00000
     19       2.8067      0.00000
     20       3.7951      0.00000
     21       5.2029      0.00000
     22       5.6241      0.00000
     23       6.5549      0.00000
     24       6.7668      0.00000

 k-point    11 :       0.3333    0.0833    0.0000
  band No.  band energies     occupation 
      1     -18.0756      2.00000
      2     -16.0252      2.00000
      3     -15.1634      2.00000
      4     -12.6404      2.00000
      5     -11.0116      2.00000
      6      -9.0961      2.00000
      7      -8.3956      2.00000
      8      -7.6306      2.00000
      9      -6.6685      2.00000
     10      -6.5435      2.00000
     11      -5.0399      2.00000
     12      -4.8339      2.00000
     13      -4.7659      2.00000
     14      -3.5742      2.00000
     15      -3.5495      2.00000
     16      -1.5440      0.00000
     17       1.5375      0.00000
     18       2.9973      0.00000
     19       3.1243      0.00000
     20       4.7554      0.00000
     21       4.8217      0.00000
     22       5.6421      0.00000
     23       6.5794      0.00000
     24       6.9190      0.00000

 k-point    12 :       0.4167    0.0833    0.0000
  band No.  band energies     occupation 
      1     -17.9725      2.00000
      2     -16.2237      2.00000
      3     -15.2167      2.00000
      4     -12.6918      2.00000
      5     -10.6841      2.00000
      6      -8.8037      2.00000
      7      -8.4393      2.00000
      8      -7.5709      2.00000
      9      -6.4910      2.00000
     10      -6.2836      2.00000
     11      -5.6651      2.00000
     12      -5.2067      2.00000
     13      -4.8631      2.00000
     14      -3.7590      2.00000
     15      -3.6241      2.00000
     16      -1.5880      0.00000
     17       1.6337      0.00000
     18       3.3120      0.00000
     19       3.5061      0.00000
     20       4.1147      0.00000
     21       5.5886      0.00000
     22       6.1336      0.00000
     23       6.4940      0.00000
     24       6.5321      0.00000

 k-point    13 :       0.1667    0.1667    0.0000
  band No.  band energies     occupation 
      1     -18.2423      2.00000
      2     -15.5947      2.00000
      3     -15.1334      2.00000
      4     -12.3267      2.00000
      5     -11.7182      2.00000
      6      -9.7514      2.00000
      7      -8.4235      2.00000
      8      -7.9297      2.00000
      9      -6.8657      2.00000
     10      -5.9215      2.00000
     11      -5.2465      2.00000
     12      -4.1761      2.00000
     13      -3.8606      2.00000
     14      -3.6321      2.00000
     15      -3.2639      2.00000
     16      -1.2839      0.00000
     17       1.1312      0.00000
     18       2.5379      0.00000
     19       3.2335      0.00000
     20       3.3406      0.00000
     21       5.1458      0.00000
     22       6.1556      0.00000
     23       6.1835      0.00000
     24       6.5488      0.00000

 k-point    14 :       0.2500    0.1667    0.0000
  band No.  band energies     occupation 
      1     -18.1037      2.00000
      2     -15.8717      2.00000
      3     -15.3171      2.00000
      4     -12.2968      2.00000
      5     -11.4379      2.00000
      6      -9.1205      2.00000
      7      -8.3761      2.00000
      8      -7.7953      2.00000
      9      -6.6081      2.00000
     10      -6.2644      2.00000
     11      -5.3186      2.00000
     12      -4.5716      2.00000
     13      -4.4650      2.00000
     14      -3.8735      2.00000
     15      -3.6394      2.00000
     16      -1.1996      0.00000
     17       1.0639      0.00000
     18       2.8959      0.00000
     19       3.6622      0.00000
     20       4.2506      0.00000
     21       5.3258      0.00000
     22       5.5089      0.00000
     23       5.9251      0.00000
     24       6.8963      0.00000

 k-point    15 :       0.3333    0.1667    0.0000
  band No.  band energies     occupation 
      1     -17.9801      2.00000
      2     -16.0976      2.00000
      3     -15.4298      2.00000
      4     -12.3214      2.00000
      5     -11.0771      2.00000
      6      -8.9724      2.00000
      7      -8.3329      2.00000
      8      -7.2613      2.00000
      9      -6.5698      2.00000
     10      -6.3281      2.00000
     11      -5.4537      2.00000
     12      -4.9770      2.00000
     13      -4.9741      2.00000
     14      -4.0100      2.00000
     15      -3.9555      2.00000
     16      -1.1306      0.00000
     17       1.0489      0.00000
     18       3.3546      0.00000
     19       3.9513      0.00000
     20       4.5712      0.00000
     21       5.1717      0.00000
     22       5.7769      0.00000
     23       5.9790      0.00000
     24       6.7564      0.00000

 k-point    16 :       0.4167    0.1667    0.0000
  band No.  band energies     occupation 
      1     -17.9277      2.00000
      2     -16.1875      2.00000
      3     -15.4670      2.00000
      4     -12.3351      2.00000
      5     -10.8914      2.00000
      6      -9.1568      2.00000
      7      -7.9544      2.00000
      8      -7.3553      2.00000
      9      -6.2381      2.00000
     10      -6.1730      2.00000
     11      -5.9419      2.00000
     12      -5.1767      2.00000
     13      -5.0349      2.00000
     14      -4.0904      2.00000
     15      -4.0533      2.00000
     16      -1.1062      0.00000
     17       1.0502      0.00000
     18       3.9094      0.00000
     19       3.9174      0.00000
     20       4.0594      0.00000
     21       5.7274      0.00000
     22       5.8797      0.00000
     23       6.0777      0.00000
     24       6.5091      0.00000

 k-point    17 :       0.2500    0.2500    0.0000
  band No.  band energies     occupation 
      1     -17.9838      2.00000
      2     -15.9999      2.00000
      3     -15.5660      2.00000
      4     -12.0256      2.00000
      5     -11.3863      2.00000
      6      -9.0296      2.00000
      7      -8.2677      2.00000
      8      -7.2565      2.00000
      9      -6.3795      2.00000
     10      -6.3477      2.00000
     11      -5.5925      2.00000
     12      -4.8681      2.00000
     13      -4.7863      2.00000
     14      -4.2577      2.00000
     15      -4.0964      2.00000
     16      -0.8660      0.00000
     17       0.7476      0.00000
     18       3.3042      0.00000
     19       4.4814      0.00000
     20       4.7155      0.00000
     21       5.1159      0.00000
     22       5.1380      0.00000
     23       5.8980      0.00000
     24       6.9762      0.00000

 k-point    18 :       0.3333    0.2500    0.0000
  band No.  band energies     occupation 
      1     -17.9036      2.00000
      2     -16.0734      2.00000
      3     -15.7140      2.00000
      4     -11.9033      2.00000
      5     -11.2356      2.00000
      6      -9.3725      2.00000
      7      -7.6539      2.00000
      8      -6.9970      2.00000
      9      -6.4838      2.00000
     10      -6.1271      2.00000
     11      -5.8405      2.00000
     12      -5.0821      2.00000
     13      -4.9870      2.00000
     14      -4.4628      2.00000
     15      -4.4486      2.00000
     16      -0.6039      0.00000
     17       0.5137      0.00000
     18       3.8129      0.00000
     19       4.4211      0.00000
     20       4.7973      0.00000
     21       5.0275      0.00000
     22       5.4990      0.00000
     23       6.2768      0.00000
     24       6.3566      0.00000

 k-point    19 :       0.3333    0.3333    0.0000
  band No.  band energies     occupation 
      1     -17.8740      2.00000
      2     -15.9418      2.00000
      3     -15.9417      2.00000
      4     -11.5104      2.00000
      5     -11.5103      2.00000
      6      -9.5490      2.00000
      7      -7.0492      2.00000
      8      -7.0491      2.00000
      9      -6.6880      2.00000
     10      -6.0398      2.00000
     11      -5.9081      2.00000
     12      -4.8955      2.00000
     13      -4.8955      2.00000
     14      -4.8156      2.00000
     15      -4.8156      2.00000
     16      -0.0438      0.00000
     17      -0.0438      0.00000
     18       4.3554      0.00000
     19       4.3790      0.00000
     20       4.3790      0.00000
     21       5.5697      0.00000
     22       5.5697      0.00000
     23       5.7006      0.00000
     24       6.5705      0.00000


--------------------------------------------------------------------------------------------------------


 soft charge-density along one line, spin component           1
         0         1         2         3         4         5         6         7         8         9
 total charge-density along one line
 
 pseudopotential strength for first ion, spin component:           1
  6.649  10.140   0.000  -0.000   0.000   0.000  -0.000   0.000
 10.140  15.459   0.000  -0.000   0.000   0.000  -0.000   0.000
  0.000   0.000  -2.275  -0.000  -0.000  -3.895  -0.000  -0.000
 -0.000  -0.000  -0.000  -2.281   0.000  -0.000  -3.903   0.000
  0.000   0.000  -0.000   0.000  -2.275  -0.000   0.000  -3.895
  0.000   0.000  -3.895  -0.000  -0.000  -6.471  -0.000  -0.000
 -0.000  -0.000  -0.000  -3.903   0.000  -0.000  -6.480   0.000
  0.000   0.000  -0.000   0.000  -3.895  -0.000   0.000  -6.471
 total augmentation occupancy for first ion, spin component:           1
  3.705  -0.948   0.000   0.000  -0.000   0.000  -0.000  -0.000
 -0.948   0.262   0.000   0.000  -0.000   0.000   0.000  -0.000
 -0.000   0.000   4.123  -0.000   0.000  -1.098  -0.000   0.000
 -0.000   0.000   0.000   0.887   0.000  -0.000  -0.221   0.000
 -0.000  -0.000   0.000  -0.000   4.123   0.000   0.000  -1.098
  0.000  -0.000  -1.098   0.000   0.000   0.304  -0.000   0.000
  0.000  -0.000   0.000  -0.221   0.000   0.000   0.056  -0.000
 -0.000   0.000   0.000   0.000  -1.098   0.000   0.000   0.304


------------------------ aborting loop because EDIFF is reached ----------------------------------------


    CHARGE:  cpu time    0.0545: real time    0.0545
    FORLOC:  cpu time    0.0035: real time    0.0035
    FORNL :  cpu time    0.1063: real time    0.1063
    STRESS:  cpu time    0.6205: real time    0.6205
    FORCOR:  cpu time    0.0341: real time    0.0341
    FORHAR:  cpu time    0.0085: real time    0.0085
    MIXING:  cpu time    0.0013: real time    0.0013
    OFIELD:  cpu time    0.0000: real time    0.0000

  FORCE on cell =-STRESS in cart. coord.  units (eV):
  Direction    XX          YY          ZZ          XY          YZ          ZX
  --------------------------------------------------------------------------------------
  Alpha Z    25.67921    25.67921    25.67921
  Ewald    1597.01980  1597.02408 -2493.77342     0.00000     0.00000     0.00000
  Hartree  1587.83070  1587.83072 -1528.90838    -0.00000    -0.00000    -0.00000
  E(xc)    -107.43369  -107.43369  -111.26425     0.00000    -0.00000    -0.00000
  Local   -3512.89416 -3512.89620  3675.00525    -0.00000     0.00000    -0.00000
  n-local   -21.92817   -21.29656   -10.33294     0.31248     0.00000    -0.00000
  augment    -1.79887    -1.79880    -1.79081     0.00000     0.00000     0.00000
  Kinetic   436.58927   429.69584   445.22856    -4.50315    -0.00000     0.00000
  Fock        0.00000     0.00000     0.00000     0.00000     0.00000     0.00000
  -------------------------------------------------------------------------------------
  Total      -0.06565    -0.06565    -0.15678     0.00000    -0.00000    -0.00000
  in kB      -0.53248    -0.53248    -1.27162     0.00000    -0.00000    -0.00000
  external pressure =       -0.78 kB  Pullay stress =        0.00 kB


 VOLUME and BASIS-vectors are now :
 -----------------------------------------------------------------------------
  energy-cutoff  :      450.00
  volume of cell :      197.53
      direct lattice vectors                 reciprocal lattice vectors
     4.480848434  2.587018852  0.000000000     0.111586010  0.193272654  0.000000000
    -4.480848434  2.587018852  0.000000000    -0.111586010  0.193272654  0.000000000
     0.000000000  0.000000000  8.520221400     0.000000000  0.000000000  0.117367842

  length of vectors
     5.174038000  5.174038000  8.520221400     0.223172034  0.223172034  0.117367842


 FORCES acting on ions
    electron-ion (+dipol)            ewald-force                    non-local-force                 convergence-correction
 -----------------------------------------------------------------------------------------------
   -.581E-05 0.298E-04 -.223E-10   -.317E-03 -.466E-14 0.287E-18   0.104E-16 -.347E-17 0.165E-23   -.463E-09 -.171E-08 0.821E-13
   0.581E-05 0.298E-04 -.261E-10   0.317E-03 0.711E-14 0.692E-18   0.104E-16 0.694E-17 0.000E+00   0.463E-09 -.171E-08 0.823E-13
   0.256E+02 -.444E+02 -.353E-06   -.276E+02 0.479E+02 -.388E-17   0.200E+01 -.347E+01 0.662E-23   -.481E-04 0.833E-04 0.117E-12
   -.256E+02 -.444E+02 -.353E-06   0.276E+02 0.479E+02 -.333E-17   -.200E+01 -.347E+01 -.331E-23   0.481E-04 0.833E-04 0.117E-12
   -.513E+02 0.500E-03 0.249E-10   0.553E+02 0.123E-10 -.177E-17   -.401E+01 -.139E-16 0.132E-22   0.961E-04 0.372E-08 0.120E-12
   0.513E+02 0.500E-03 0.288E-10   -.553E+02 0.124E-10 -.199E-17   0.401E+01 -.139E-16 -.199E-22   -.961E-04 0.372E-08 0.122E-12
   0.256E+02 0.444E+02 0.353E-06   -.276E+02 -.479E+02 0.490E-17   0.200E+01 0.347E+01 0.331E-23   -.481E-04 -.832E-04 0.126E-12
   -.256E+02 0.444E+02 0.353E-06   0.276E+02 -.479E+02 0.510E-17   -.200E+01 0.347E+01 -.662E-23   0.481E-04 -.832E-04 0.123E-12
 -----------------------------------------------------------------------------------------------
   0.120E-11 0.349E-02 0.117E-09   0.000E+00 -.142E-13 0.000E+00   -.444E-15 0.444E-15 -.496E-23   0.301E-14 0.567E-08 0.890E-12
 
 
 POSITION                                       TOTAL-FORCE (eV/Angst)
 -----------------------------------------------------------------------------------
     -1.49361      2.58702      2.13006         0.000000     -0.000000     -0.000000
      1.49361      2.58702      2.13006         0.000000     -0.000000     -0.000000
     -0.71108      1.23161      2.13006        -0.000653      0.001131      0.000000
      0.71108      1.23161      2.13006         0.000653      0.001131      0.000000
     -3.05870      2.58702      2.13006         0.001306     -0.000000     -0.000000
      3.05870      2.58702      2.13006        -0.001306     -0.000000      0.000000
     -0.71108      3.94242      2.13006        -0.000653     -0.001131     -0.000000
      0.71108      3.94242      2.13006         0.000653     -0.001131     -0.000000
 -----------------------------------------------------------------------------------
    total drift:                                0.000000      0.003492      0.000000


--------------------------------------------------------------------------------------------------------



  FREE ENERGIE OF THE ION-ELECTRON SYSTEM (eV)
  ---------------------------------------------------
  free  energy   TOTEN  =       -67.22773023 eV

  energy  without entropy=      -67.22773016  energy(sigma->0) =      -67.22773020
 


--------------------------------------------------------------------------------------------------------


    POTLOK:  cpu time    0.0339: real time    0.0339


--------------------------------------------------------------------------------------------------------


 writing wavefunctions
     LOOP+:  cpu time   13.9751: real time   14.1728
    4ORBIT:  cpu time    0.0000: real time    0.0000

 total amount of memory used by VASP MPI-rank0    51948. kBytes
=======================================================================

   base      :      30000. kBytes
   nonl-proj :      11089. kBytes
   fftplans  :       2090. kBytes
   grid      :       6068. kBytes
   one-center:         24. kBytes
   wavefun   :       2677. kBytes
 
  
  
 General timing and accounting informations for this job:
 ========================================================
  
                  Total CPU time used (sec):       17.336
                            User time (sec):       16.102
                          System time (sec):        1.234
                         Elapsed time (sec):       18.362
  
                   Maximum memory used (kb):      129068.
                   Average memory used (kb):           0.
  
                          Minor page faults:        29516
                          Major page faults:           26
                 Voluntary context switches:         2506
