 vasp.5.4.4.18Apr17-6-g9f103f2a35 (build Mar 30 2023 15:39:25) complex          
  
 executed on             LinuxIFC date 2023.05.03  17:29:28
 running on   12 total cores
 distrk:  each k-point on   12 cores,    1 groups
 distr:  one band on NCORES_PER_BAND=   1 cores,   12 groups


--------------------------------------------------------------------------------------------------------


 INCAR:
 POTCAR:    PAW_PBE Ni 02Aug2007                  

 ----------------------------------------------------------------------------- 
|                                                                             |
|           W    W    AA    RRRRR   N    N  II  N    N   GGGG   !!!           |
|           W    W   A  A   R    R  NN   N  II  NN   N  G    G  !!!           |
|           W    W  A    A  R    R  N N  N  II  N N  N  G       !!!           |
|           W WW W  AAAAAA  RRRRR   N  N N  II  N  N N  G  GGG   !            |
|           WW  WW  A    A  R   R   N   NN  II  N   NN  G    G                |
|           W    W  A    A  R    R  N    N  II  N    N   GGGG   !!!           |
|                                                                             |
|      For optimal performance we recommend to set                            |
|        NCORE= 4 - approx SQRT( number of cores)                             |
|      NCORE specifies how many cores store one orbital (NPAR=cpu/NCORE).     |
|      This setting can  greatly improve the performance of VASP for DFT.     |
|      The default,   NCORE=1            might be grossly inefficient         |
|      on modern multi-core architectures or massively parallel machines.     |
|      Do your own testing !!!!                                               |
|      Unfortunately you need to use the default for GW and RPA calculations. |
|      (for HF NCORE is supported but not extensively tested yet)             |
|                                                                             |
 ----------------------------------------------------------------------------- 

 POTCAR:    PAW_PBE Ni 02Aug2007                  
   SHA256 =  0534bc51ca8003dfef23f56753fef9fdd3e22eac8d719fccacb59f3e6b7a69c7 Ni
   COPYR  = (c) Copyright 02Aug2007 Georg Kresse                                
   COPYR  = This file is part of the software VASP. Any use, copying, and all ot
   COPYR  = If you do not have a valid VASP license, you may not use, copy or di
   VRHFIN =Ni:                                                                  
   LEXCH  = PE                                                                  
   EATOM  =  1077.6739 eV,   79.2068 Ry                                         
                                                                                
   TITEL  = PAW_PBE Ni 02Aug2007                                                
   LULTRA =        F    use ultrasoft PP ?                                      
   IUNSCR =        1    unscreen: 0-lin 1-nonlin 2-no                           
   RPACOR =    2.000    partial core radius                                     
   POMASS =   58.690; ZVAL   =   10.000    mass and valenz                      
   RCORE  =    2.300    outmost cutoff radius                                   
   RWIGS  =    2.430; RWIGS  =    1.286    wigner-seitz radius (au A)           
   ENMAX  =  269.532; ENMIN  =  202.149 eV                                      
   RCLOC  =    1.201    cutoff for local pot                                    
   LCOR   =        T    correct aug charges                                     
   LPAW   =        T    paw PP                                                  
   EAUG   =  544.565                                                            
   DEXC   =    0.000                                                            
   RMAX   =    2.357    core radius for proj-oper                               
   RAUG   =    1.300    factor for augmentation sphere                          
   RDEP   =    2.390    radius for radial grids                                 
   RDEPT  =    1.838    core radius for aug-charge                              
                                                                                
   Atomic configuration                                                         
    9 entries                                                                   
     n  l   j            E        occ.                                          
     1  0  0.50     -8206.4253   2.0000                                         
     2  0  0.50      -976.1748   2.0000                                         
     2  1  1.50      -839.0571   6.0000                                         
     3  0  0.50      -105.9991   2.0000                                         
     3  1  1.50       -66.4603   6.0000                                         
     3  2  2.50        -4.6458   9.0000                                         
     4  0  0.50        -4.4926   1.0000                                         
     4  1  1.50        -4.0817   0.0000                                         
     4  3  2.50        -1.3606   0.0000                                         
   Description                                                                  
     l       E           TYP  RCUT    TYP  RCUT                                 
     2     -4.6457903     23  2.300                                             
     2     -6.0063729     23  2.300                                             
     0     -4.4925590     23  2.300                                             
     0      5.0102601     23  2.300                                             
     1     -2.7211652     23  2.300                                             
     1     16.5183231     23  2.300                                             
  local pseudopotential read in
  partial core-charges read in
  partial kinetic energy density read in
  atomic valenz-charges read in
  non local Contribution for L=           2  read in
    real space projection operators read in
  non local Contribution for L=           2  read in
    real space projection operators read in
  non local Contribution for L=           0  read in
    real space projection operators read in
  non local Contribution for L=           0  read in
    real space projection operators read in
  non local Contribution for L=           1  read in
    real space projection operators read in
  non local Contribution for L=           1  read in
    real space projection operators read in
    PAW grid and wavefunctions read in
 
   number of l-projection  operators is LMAX  =           6
   number of lm-projection operators is LMMAX =          18
 
  PAW_PBE Ni 02Aug2007                  :
 energy of atom  1       EATOM=-1077.6739
 kinetic energy error for atom=    0.0378 (will be added to EATOM!!)
 
 
 POSCAR: fcc:                                    
  positions in cartesian coordinates
  No initial velocities read in
 exchange correlation table for  LEXCH =        8
   RHO(1)=    0.500       N(1)  =     2000
   RHO(2)=  100.500       N(2)  =     4000
 


--------------------------------------------------------------------------------------------------------


 ion  position               nearest neighbor table
   1  0.000  0.000  0.000-
 
  LATTYP: Found a face centered cubic cell.
 ALAT       =     3.5300000000
  
  Lattice vectors:
  
 A1 = (   1.7650000000,   1.7650000000,   0.0000000000)
 A2 = (   0.0000000000,   1.7650000000,   1.7650000000)
 A3 = (   1.7650000000,   0.0000000000,   1.7650000000)


Analysis of symmetry for initial positions (statically):
=====================================================================
 Subroutine PRICEL returns:
 Original cell was already a primitive cell.
 

 Routine SETGRP: Setting up the symmetry group for a 
 face centered cubic supercell.


 Subroutine GETGRP returns: Found 48 space group operations
 (whereof 48 operations were pure point group operations)
 out of a pool of 48 trial point group operations.


The static configuration has the point symmetry O_h .


Analysis of symmetry for dynamics (positions and initial velocities):
=====================================================================
 Subroutine PRICEL returns:
 Original cell was already a primitive cell.
 

 Routine SETGRP: Setting up the symmetry group for a 
 face centered cubic supercell.


 Subroutine GETGRP returns: Found 48 space group operations
 (whereof 48 operations were pure point group operations)
 out of a pool of 48 trial point group operations.


The dynamic configuration has the point symmetry O_h .


Analysis of structural, dynamic, and magnetic symmetry:
=====================================================================
 Subroutine PRICEL returns:
 Original cell was already a primitive cell.
 

 Routine SETGRP: Setting up the symmetry group for a 
 face centered cubic supercell.


 Subroutine GETGRP returns: Found 48 space group operations
 (whereof 48 operations were pure point group operations)
 out of a pool of 48 trial point group operations.


The magnetic configuration has the point symmetry O_h .


 Subroutine INISYM returns: Found 48 space group operations
 (whereof 48 operations are pure point group operations),
 and found     1 'primitive' translations

 
 
 KPOINTS: k-points                                

Automatic generation of k-mesh.
Space group operators:
 irot       det(A)        alpha          n_x          n_y          n_z        tau_x        tau_y        tau_z
    1     1.000000     0.000000     1.000000     0.000000     0.000000     0.000000     0.000000     0.000000
    2    -1.000000     0.000000     1.000000     0.000000     0.000000     0.000000     0.000000     0.000000
    3     1.000000   120.000000    -0.577350    -0.577350    -0.577350     0.000000     0.000000     0.000000
    4    -1.000000   120.000000    -0.577350    -0.577350    -0.577350     0.000000     0.000000     0.000000
    5     1.000000   120.000000     0.577350     0.577350     0.577350     0.000000     0.000000     0.000000
    6    -1.000000   120.000000     0.577350     0.577350     0.577350     0.000000     0.000000     0.000000
    7     1.000000    90.000000     0.000000    -1.000000     0.000000     0.000000     0.000000     0.000000
    8    -1.000000    90.000000     0.000000    -1.000000     0.000000     0.000000     0.000000     0.000000
    9     1.000000   180.000000     0.707107     0.707107     0.000000     0.000000     0.000000     0.000000
   10    -1.000000   180.000000     0.707107     0.707107     0.000000     0.000000     0.000000     0.000000
   11     1.000000    90.000000     1.000000     0.000000     0.000000     0.000000     0.000000     0.000000
   12    -1.000000    90.000000     1.000000     0.000000     0.000000     0.000000     0.000000     0.000000
   13     1.000000   180.000000     0.000000     1.000000     0.000000     0.000000     0.000000     0.000000
   14    -1.000000   180.000000     0.000000     1.000000     0.000000     0.000000     0.000000     0.000000
   15     1.000000   120.000000     0.577350     0.577350    -0.577350     0.000000     0.000000     0.000000
   16    -1.000000   120.000000     0.577350     0.577350    -0.577350     0.000000     0.000000     0.000000
   17     1.000000   120.000000     0.577350    -0.577350    -0.577350     0.000000     0.000000     0.000000
   18    -1.000000   120.000000     0.577350    -0.577350    -0.577350     0.000000     0.000000     0.000000
   19     1.000000    90.000000     0.000000     1.000000     0.000000     0.000000     0.000000     0.000000
   20    -1.000000    90.000000     0.000000     1.000000     0.000000     0.000000     0.000000     0.000000
   21     1.000000    90.000000     0.000000     0.000000    -1.000000     0.000000     0.000000     0.000000
   22    -1.000000    90.000000     0.000000     0.000000    -1.000000     0.000000     0.000000     0.000000
   23     1.000000   180.000000     0.000000     0.707107     0.707107     0.000000     0.000000     0.000000
   24    -1.000000   180.000000     0.000000     0.707107     0.707107     0.000000     0.000000     0.000000
   25     1.000000   120.000000    -0.577350     0.577350     0.577350     0.000000     0.000000     0.000000
   26    -1.000000   120.000000    -0.577350     0.577350     0.577350     0.000000     0.000000     0.000000
   27     1.000000   120.000000    -0.577350     0.577350    -0.577350     0.000000     0.000000     0.000000
   28    -1.000000   120.000000    -0.577350     0.577350    -0.577350     0.000000     0.000000     0.000000
   29     1.000000   180.000000     0.000000     0.000000     1.000000     0.000000     0.000000     0.000000
   30    -1.000000   180.000000     0.000000     0.000000     1.000000     0.000000     0.000000     0.000000
   31     1.000000    90.000000    -1.000000     0.000000     0.000000     0.000000     0.000000     0.000000
   32    -1.000000    90.000000    -1.000000     0.000000     0.000000     0.000000     0.000000     0.000000
   33     1.000000   180.000000     0.707107     0.000000     0.707107     0.000000     0.000000     0.000000
   34    -1.000000   180.000000     0.707107     0.000000     0.707107     0.000000     0.000000     0.000000
   35     1.000000    90.000000     0.000000     0.000000     1.000000     0.000000     0.000000     0.000000
   36    -1.000000    90.000000     0.000000     0.000000     1.000000     0.000000     0.000000     0.000000
   37     1.000000   120.000000    -0.577350    -0.577350     0.577350     0.000000     0.000000     0.000000
   38    -1.000000   120.000000    -0.577350    -0.577350     0.577350     0.000000     0.000000     0.000000
   39     1.000000   180.000000     1.000000     0.000000     0.000000     0.000000     0.000000     0.000000
   40    -1.000000   180.000000     1.000000     0.000000     0.000000     0.000000     0.000000     0.000000
   41     1.000000   120.000000     0.577350    -0.577350     0.577350     0.000000     0.000000     0.000000
   42    -1.000000   120.000000     0.577350    -0.577350     0.577350     0.000000     0.000000     0.000000
   43     1.000000   180.000000     0.707107    -0.707107     0.000000     0.000000     0.000000     0.000000
   44    -1.000000   180.000000     0.707107    -0.707107     0.000000     0.000000     0.000000     0.000000
   45     1.000000   180.000000     0.707107     0.000000    -0.707107     0.000000     0.000000     0.000000
   46    -1.000000   180.000000     0.707107     0.000000    -0.707107     0.000000     0.000000     0.000000
   47     1.000000   180.000000     0.000000    -0.707107     0.707107     0.000000     0.000000     0.000000
   48    -1.000000   180.000000     0.000000    -0.707107     0.707107     0.000000     0.000000     0.000000
 
 Subroutine IBZKPT returns following result:
 ===========================================
 
 Found     56 irreducible k-points:
 
 Following reciprocal coordinates:
            Coordinates               Weight
  0.000000  0.000000  0.000000      1.000000
  0.090909  0.000000  0.000000      8.000000
  0.181818  0.000000  0.000000      8.000000
  0.272727  0.000000  0.000000      8.000000
  0.363636  0.000000  0.000000      8.000000
  0.454545  0.000000  0.000000      8.000000
  0.090909  0.090909  0.000000      6.000000
  0.181818  0.090909  0.000000     24.000000
  0.272727  0.090909  0.000000     24.000000
  0.363636  0.090909  0.000000     24.000000
  0.454545  0.090909  0.000000     24.000000
 -0.454545  0.090909  0.000000     24.000000
 -0.363636  0.090909  0.000000     24.000000
 -0.272727  0.090909  0.000000     24.000000
 -0.181818  0.090909  0.000000     24.000000
 -0.090909  0.090909  0.000000     12.000000
  0.181818  0.181818  0.000000      6.000000
  0.272727  0.181818  0.000000     24.000000
  0.363636  0.181818  0.000000     24.000000
  0.454545  0.181818  0.000000     24.000000
 -0.454545  0.181818  0.000000     24.000000
 -0.363636  0.181818  0.000000     24.000000
 -0.272727  0.181818  0.000000     24.000000
 -0.181818  0.181818  0.000000     12.000000
  0.272727  0.272727  0.000000      6.000000
  0.363636  0.272727  0.000000     24.000000
  0.454545  0.272727  0.000000     24.000000
 -0.454545  0.272727  0.000000     24.000000
 -0.363636  0.272727  0.000000     24.000000
 -0.272727  0.272727  0.000000     12.000000
  0.363636  0.363636  0.000000      6.000000
  0.454545  0.363636  0.000000     24.000000
 -0.454545  0.363636  0.000000     24.000000
 -0.363636  0.363636  0.000000     12.000000
  0.454545  0.454545  0.000000      6.000000
 -0.454545  0.454545  0.000000     12.000000
  0.272727  0.181818  0.090909     24.000000
  0.363636  0.181818  0.090909     48.000000
  0.454545  0.181818  0.090909     48.000000
 -0.454545  0.181818  0.090909     48.000000
  0.363636  0.272727  0.090909     24.000000
  0.454545  0.272727  0.090909     48.000000
 -0.454545  0.272727  0.090909     48.000000
 -0.363636  0.272727  0.090909     48.000000
 -0.272727  0.272727  0.090909     48.000000
 -0.181818  0.272727  0.090909     24.000000
  0.454545  0.363636  0.090909     24.000000
 -0.454545  0.363636  0.090909     48.000000
 -0.363636  0.363636  0.090909     48.000000
 -0.272727  0.363636  0.090909     24.000000
 -0.454545  0.454545  0.090909     24.000000
 -0.363636  0.454545  0.090909     24.000000
 -0.454545  0.363636  0.181818     24.000000
 -0.363636  0.363636  0.181818     48.000000
 -0.363636  0.454545  0.181818     24.000000
 -0.272727  0.454545  0.181818     24.000000
 
 Following cartesian coordinates:
            Coordinates               Weight
  0.000000  0.000000  0.000000      1.000000
  0.090909  0.090909 -0.090909      8.000000
  0.181818  0.181818 -0.181818      8.000000
  0.272727  0.272727 -0.272727      8.000000
  0.363636  0.363636 -0.363636      8.000000
  0.454545  0.454545 -0.454545      8.000000
  0.000000  0.181818  0.000000      6.000000
  0.090909  0.272727 -0.090909     24.000000
  0.181818  0.363636 -0.181818     24.000000
  0.272727  0.454545 -0.272727     24.000000
  0.363636  0.545455 -0.363636     24.000000
 -0.545455 -0.363636  0.545455     24.000000
 -0.454545 -0.272727  0.454545     24.000000
 -0.363636 -0.181818  0.363636     24.000000
 -0.272727 -0.090909  0.272727     24.000000
 -0.181818  0.000000  0.181818     12.000000
  0.000000  0.363636  0.000000      6.000000
  0.090909  0.454545 -0.090909     24.000000
  0.181818  0.545455 -0.181818     24.000000
  0.272727  0.636364 -0.272727     24.000000
 -0.636364 -0.272727  0.636364     24.000000
 -0.545455 -0.181818  0.545455     24.000000
 -0.454545 -0.090909  0.454545     24.000000
 -0.363636  0.000000  0.363636     12.000000
  0.000000  0.545455  0.000000      6.000000
  0.090909  0.636364 -0.090909     24.000000
  0.181818  0.727273 -0.181818     24.000000
 -0.727273 -0.181818  0.727273     24.000000
 -0.636364 -0.090909  0.636364     24.000000
 -0.545455  0.000000  0.545455     12.000000
  0.000000  0.727273  0.000000      6.000000
  0.090909  0.818182 -0.090909     24.000000
 -0.818182 -0.090909  0.818182     24.000000
 -0.727273  0.000000  0.727273     12.000000
  0.000000  0.909091  0.000000      6.000000
 -0.909091  0.000000  0.909091     12.000000
  0.181818  0.363636  0.000000     24.000000
  0.272727  0.454545 -0.090909     48.000000
  0.363636  0.545455 -0.181818     48.000000
 -0.545455 -0.363636  0.727273     48.000000
  0.181818  0.545455  0.000000     24.000000
  0.272727  0.636364 -0.090909     48.000000
 -0.636364 -0.272727  0.818182     48.000000
 -0.545455 -0.181818  0.727273     48.000000
 -0.454545 -0.090909  0.636364     48.000000
 -0.363636 -0.000000  0.545455     24.000000
  0.181818  0.727273 -0.000000     24.000000
 -0.727273 -0.181818  0.909091     48.000000
 -0.636364 -0.090909  0.818182     48.000000
 -0.545455 -0.000000  0.727273     24.000000
 -0.818182 -0.090909  1.000000     24.000000
 -0.727273 -0.000000  0.909091     24.000000
 -0.636364 -0.272727  1.000000     24.000000
 -0.545455 -0.181818  0.909091     48.000000
 -0.636364 -0.090909  1.000000     24.000000
 -0.545455  0.000000  0.909091     24.000000
 


--------------------------------------------------------------------------------------------------------




 Dimension of arrays:
   k-points           NKPTS =     56   k-points in BZ     NKDIM =     56   number of bands    NBANDS=     12
   number of dos      NEDOS =    301   number of ions     NIONS =      1
   non local maximal  LDIM  =      6   non local SUM 2l+1 LMDIM =     18
   total plane-waves  NPLWV =   2744
   max r-space proj   IRMAX =      1   max aug-charges    IRDMAX=   8287
   dimension x,y,z NGX =    14 NGY =   14 NGZ =   14
   dimension x,y,z NGXF=    28 NGYF=   28 NGZF=   28
   support grid    NGXF=    28 NGYF=   28 NGZF=   28
   ions per type =               1
   NGX,Y,Z   is equivalent  to a cutoff of   9.32,  9.32,  9.32 a.u.
   NGXF,Y,Z  is equivalent  to a cutoff of  18.65, 18.65, 18.65 a.u.

 SYSTEM =  fcc Ni bandstructure                    
 POSCAR =  fcc:                                    

 Startparameter for this run:
   NWRITE =      2    write-flag & timer
   PREC   = accura    normal or accurate (medium, high low for compatibility)
   ISTART =      0    job   : 0-new  1-cont  2-samecut
   ICHARG =      2    charge: 1-file 2-atom 10-const
   ISPIN  =      2    spin polarized calculation?
   LNONCOLLINEAR =      F non collinear calculations
   LSORBIT =      F    spin-orbit coupling
   INIWAV =      1    electr: 0-lowe 1-rand  2-diag
   LASPH  =      F    aspherical Exc in radial PAW
   METAGGA=      F    non-selfconsistent MetaGGA calc.

 Electronic Relaxation 1
   ENCUT  =  270.0 eV  19.84 Ry    4.45 a.u.   3.34  3.34  3.34*2*pi/ulx,y,z
   ENINI  =  270.0     initial cutoff
   ENAUG  =  544.6 eV  augmentation charge cutoff
   NELM   =     60;   NELMIN=  2; NELMDL= -5     # of ELM steps 
   EDIFF  = 0.1E-05   stopping-criterion for ELM
   LREAL  =      F    real-space projection
   NLSPLINE    = F    spline interpolate recip. space projectors
   LCOMPAT=      F    compatible to vasp.4.4
   GGA_COMPAT  = T    GGA compatible to vasp.4.4-vasp.4.6
   LMAXPAW     = -100 max onsite density
   LMAXMIX     =    2 max onsite mixed and CHGCAR
   VOSKOWN=      0    Vosko Wilk Nusair interpolation
   ROPT   =    0.00000
 Ionic relaxation
   EDIFFG = -.1E-05   stopping-criterion for IOM
   NSW    =      0    number of steps for IOM
   NBLOCK =      1;   KBLOCK =      1    inner block; outer block 
   IBRION =     -1    ionic relax: 0-MD 1-quasi-New 2-CG
   NFREE  =      0    steps in history (QN), initial steepest desc. (CG)
   ISIF   =      2    stress and relaxation
   IWAVPR =     10    prediction:  0-non 1-charg 2-wave 3-comb
   ISYM   =      2    0-nonsym 1-usesym 2-fastsym
   LCORR  =      T    Harris-Foulkes like correction to forces

   POTIM  = 0.5000    time-step for ionic-motion
   TEIN   =    0.0    initial temperature
   TEBEG  =    0.0;   TEEND  =   0.0 temperature during run
   SMASS  =  -3.00    Nose mass-parameter (am)
   estimated Nose-frequenzy (Omega)   =  0.10E-29 period in steps =****** mass=  -0.142E-27a.u.
   SCALEE = 1.0000    scale energy and forces
   NPACO  =    256;   APACO  = 16.0  distance and # of slots for P.C.
   PSTRESS=    0.0 pullay stress

  Mass of Ions in am
   POMASS =  58.69
  Ionic Valenz
   ZVAL   =  10.00
  Atomic Wigner-Seitz radii
   RWIGS  =  -1.00
  virtual crystal weights 
   VCA    =   1.00
   NELECT =      10.0000    total number of electrons
   NUPDOWN=      -1.0000    fix difference up-down

 DOS related values:
   EMIN   =  10.00;   EMAX   =-10.00  energy-range for DOS
   EFERMI =   0.00
   ISMEAR =     1;   SIGMA  =   0.20  broadening in eV -4-tet -1-fermi 0-gaus

 Electronic relaxation 2 (details)
   IALGO  =     38    algorithm
   LDIAG  =      T    sub-space diagonalisation (order eigenvalues)
   LSUBROT=      F    optimize rotation matrix (better conditioning)
   TURBO    =      0    0=normal 1=particle mesh
   IRESTART =      0    0=no restart 2=restart with 2 vectors
   NREBOOT  =      0    no. of reboots
   NMIN     =      0    reboot dimension
   EREF     =   0.00    reference energy to select bands
   IMIX   =      4    mixing-type and parameters
     AMIX     =   0.40;   BMIX     =  1.00
     AMIX_MAG =   1.60;   BMIX_MAG =  1.00
     AMIN     =   0.10
     WC   =   100.;   INIMIX=   1;  MIXPRE=   1;  MAXMIX= -45

 Intra band minimization:
   WEIMIN = 0.0000     energy-eigenvalue tresh-hold
   EBREAK =  0.21E-08  absolut break condition
   DEPER  =   0.30     relativ break condition  

   TIME   =   0.40     timestep for ELM

  volume/ion in A,a.u.               =      11.00        74.21
  Fermi-wavevector in a.u.,A,eV,Ry     =   1.586062  2.997222 34.226710  2.515592
  Thomas-Fermi vector in A             =   2.685431
 
 Write flags
   LWAVE        =      T    write WAVECAR
   LDOWNSAMPLE  =      F    k-point downsampling of WAVECAR
   LCHARG       =      T    write CHGCAR
   LVTOT        =      F    write LOCPOT, total local potential
   LVHAR        =      F    write LOCPOT, Hartree potential only
   LELF         =      F    write electronic localiz. function (ELF)
   LORBIT       =     11    0 simple, 1 ext, 2 COOP (PROOUT), +10 PAW based schemes


 Dipole corrections
   LMONO  =      F    monopole corrections only (constant potential shift)
   LDIPOL =      F    correct potential (dipole corrections)
   IDIPOL =      0    1-x, 2-y, 3-z, 4-all directions 
   EPSILON=  1.0000000 bulk dielectric constant

 Exchange correlation treatment:
   GGA     =    --    GGA type
   LEXCH   =     8    internal setting for exchange type
   VOSKOWN=      0    Vosko Wilk Nusair interpolation
   LHFCALC =     F    Hartree Fock is set to
   LHFONE  =     F    Hartree Fock one center treatment
   AEXX    =    0.0000 exact exchange contribution

 Linear response parameters
   LEPSILON=     F    determine dielectric tensor
   LRPA    =     F    only Hartree local field effects (RPA)
   LNABLA  =     F    use nabla operator in PAW spheres
   LVEL    =     F    velocity operator in full k-point grid
   LINTERFAST=   F  fast interpolation
   KINTER  =     0    interpolate to denser k-point grid
   CSHIFT  =0.1000    complex shift for real part using Kramers Kronig
   OMEGAMAX=  -1.0    maximum frequency
   DEG_THRESHOLD= 0.2000000E-02 threshold for treating states as degnerate
   RTIME   =   -0.100 relaxation time in fs
  (WPLASMAI=    0.000 imaginary part of plasma frequency in eV, 0.658/RTIME)
   DFIELD  = 0.0000000 0.0000000 0.0000000 field for delta impulse in time
 
 Orbital magnetization related:
   ORBITALMAG=     F  switch on orbital magnetization
   LCHIMAG   =     F  perturbation theory with respect to B field
   DQ        =  0.001000  dq finite difference perturbation B field
   LLRAUG    =     F  two centre corrections for induced B field



--------------------------------------------------------------------------------------------------------


 Static calculation
 charge density and potential will be updated during run
 spin polarized calculation
 Variant of blocked Davidson
 Davidson routine will perform the subspace rotation
 perform sub-space diagonalisation
    after iterative eigenvector-optimisation
 modified Broyden-mixing scheme, WC =      100.0
 initial mixing is a Kerker type mixing with AMIX =  0.4000 and BMIX =      1.0000
 Hartree-type preconditioning will be used
 using additional bands            7
 reciprocal scheme for non local part
 use partial core corrections
 calculate Harris-corrections to forces 
   (improved forces if not selfconsistent)
 use gradient corrections 
 use of overlap-Matrix (Vanderbilt PP)
 Methfessel and Paxton  Order N= 1 SIGMA  =   0.20


--------------------------------------------------------------------------------------------------------


  energy-cutoff  :      270.00
  volume of cell :       11.00
      direct lattice vectors                 reciprocal lattice vectors
     1.765000000  1.765000000  0.000000000     0.283286119  0.283286119 -0.283286119
     0.000000000  1.765000000  1.765000000    -0.283286119  0.283286119  0.283286119
     1.765000000  0.000000000  1.765000000     0.283286119 -0.283286119  0.283286119

  length of vectors
     2.496086938  2.496086938  2.496086938     0.490665951  0.490665951  0.490665951


 
 k-points in units of 2pi/SCALE and weight: k-points                                
   0.00000000  0.00000000  0.00000000       0.001
   0.09090909  0.09090909 -0.09090909       0.006
   0.18181818  0.18181818 -0.18181818       0.006
   0.27272727  0.27272727 -0.27272727       0.006
   0.36363636  0.36363636 -0.36363636       0.006
   0.45454545  0.45454545 -0.45454545       0.006
   0.00000000  0.18181818  0.00000000       0.005
   0.09090909  0.27272727 -0.09090909       0.018
   0.18181818  0.36363636 -0.18181818       0.018
   0.27272727  0.45454545 -0.27272727       0.018
   0.36363636  0.54545455 -0.36363636       0.018
  -0.54545455 -0.36363636  0.54545455       0.018
  -0.45454545 -0.27272727  0.45454545       0.018
  -0.36363636 -0.18181818  0.36363636       0.018
  -0.27272727 -0.09090909  0.27272727       0.018
  -0.18181818  0.00000000  0.18181818       0.009
   0.00000000  0.36363636  0.00000000       0.005
   0.09090909  0.45454545 -0.09090909       0.018
   0.18181818  0.54545455 -0.18181818       0.018
   0.27272727  0.63636364 -0.27272727       0.018
  -0.63636364 -0.27272727  0.63636364       0.018
  -0.54545455 -0.18181818  0.54545455       0.018
  -0.45454545 -0.09090909  0.45454545       0.018
  -0.36363636  0.00000000  0.36363636       0.009
   0.00000000  0.54545455  0.00000000       0.005
   0.09090909  0.63636364 -0.09090909       0.018
   0.18181818  0.72727273 -0.18181818       0.018
  -0.72727273 -0.18181818  0.72727273       0.018
  -0.63636364 -0.09090909  0.63636364       0.018
  -0.54545455  0.00000000  0.54545455       0.009
   0.00000000  0.72727273  0.00000000       0.005
   0.09090909  0.81818182 -0.09090909       0.018
  -0.81818182 -0.09090909  0.81818182       0.018
  -0.72727273  0.00000000  0.72727273       0.009
   0.00000000  0.90909091  0.00000000       0.005
  -0.90909091  0.00000000  0.90909091       0.009
   0.18181818  0.36363636  0.00000000       0.018
   0.27272727  0.45454545 -0.09090909       0.036
   0.36363636  0.54545455 -0.18181818       0.036
  -0.54545455 -0.36363636  0.72727273       0.036
   0.18181818  0.54545455  0.00000000       0.018
   0.27272727  0.63636364 -0.09090909       0.036
  -0.63636364 -0.27272727  0.81818182       0.036
  -0.54545455 -0.18181818  0.72727273       0.036
  -0.45454545 -0.09090909  0.63636364       0.036
  -0.36363636 -0.00000000  0.54545455       0.018
   0.18181818  0.72727273 -0.00000000       0.018
  -0.72727273 -0.18181818  0.90909091       0.036
  -0.63636364 -0.09090909  0.81818182       0.036
  -0.54545455 -0.00000000  0.72727273       0.018
  -0.81818182 -0.09090909  1.00000000       0.018
  -0.72727273 -0.00000000  0.90909091       0.018
  -0.63636364 -0.27272727  1.00000000       0.018
  -0.54545455 -0.18181818  0.90909091       0.036
  -0.63636364 -0.09090909  1.00000000       0.018
  -0.54545455  0.00000000  0.90909091       0.018
 
 k-points in reciprocal lattice and weights: k-points                                
   0.00000000  0.00000000  0.00000000       0.001
   0.09090909  0.00000000  0.00000000       0.006
   0.18181818  0.00000000  0.00000000       0.006
   0.27272727  0.00000000  0.00000000       0.006
   0.36363636  0.00000000  0.00000000       0.006
   0.45454545  0.00000000  0.00000000       0.006
   0.09090909  0.09090909  0.00000000       0.005
   0.18181818  0.09090909  0.00000000       0.018
   0.27272727  0.09090909  0.00000000       0.018
   0.36363636  0.09090909  0.00000000       0.018
   0.45454545  0.09090909  0.00000000       0.018
  -0.45454545  0.09090909  0.00000000       0.018
  -0.36363636  0.09090909  0.00000000       0.018
  -0.27272727  0.09090909  0.00000000       0.018
  -0.18181818  0.09090909  0.00000000       0.018
  -0.09090909  0.09090909  0.00000000       0.009
   0.18181818  0.18181818  0.00000000       0.005
   0.27272727  0.18181818  0.00000000       0.018
   0.36363636  0.18181818  0.00000000       0.018
   0.45454545  0.18181818  0.00000000       0.018
  -0.45454545  0.18181818  0.00000000       0.018
  -0.36363636  0.18181818  0.00000000       0.018
  -0.27272727  0.18181818  0.00000000       0.018
  -0.18181818  0.18181818  0.00000000       0.009
   0.27272727  0.27272727  0.00000000       0.005
   0.36363636  0.27272727  0.00000000       0.018
   0.45454545  0.27272727  0.00000000       0.018
  -0.45454545  0.27272727  0.00000000       0.018
  -0.36363636  0.27272727  0.00000000       0.018
  -0.27272727  0.27272727  0.00000000       0.009
   0.36363636  0.36363636  0.00000000       0.005
   0.45454545  0.36363636  0.00000000       0.018
  -0.45454545  0.36363636  0.00000000       0.018
  -0.36363636  0.36363636  0.00000000       0.009
   0.45454545  0.45454545  0.00000000       0.005
  -0.45454545  0.45454545  0.00000000       0.009
   0.27272727  0.18181818  0.09090909       0.018
   0.36363636  0.18181818  0.09090909       0.036
   0.45454545  0.18181818  0.09090909       0.036
  -0.45454545  0.18181818  0.09090909       0.036
   0.36363636  0.27272727  0.09090909       0.018
   0.45454545  0.27272727  0.09090909       0.036
  -0.45454545  0.27272727  0.09090909       0.036
  -0.36363636  0.27272727  0.09090909       0.036
  -0.27272727  0.27272727  0.09090909       0.036
  -0.18181818  0.27272727  0.09090909       0.018
   0.45454545  0.36363636  0.09090909       0.018
  -0.45454545  0.36363636  0.09090909       0.036
  -0.36363636  0.36363636  0.09090909       0.036
  -0.27272727  0.36363636  0.09090909       0.018
  -0.45454545  0.45454545  0.09090909       0.018
  -0.36363636  0.45454545  0.09090909       0.018
  -0.45454545  0.36363636  0.18181818       0.018
  -0.36363636  0.36363636  0.18181818       0.036
  -0.36363636  0.45454545  0.18181818       0.018
  -0.27272727  0.45454545  0.18181818       0.018
 
 position of ions in fractional coordinates (direct lattice) 
   0.00000000  0.00000000  0.00000000
 
 position of ions in cartesian coordinates  (Angst):
   0.00000000  0.00000000  0.00000000
 


--------------------------------------------------------------------------------------------------------


 k-point  1 :   0.0000 0.0000 0.0000  plane waves:     113
 k-point  2 :   0.0909 0.0000 0.0000  plane waves:     113
 k-point  3 :   0.1818 0.0000 0.0000  plane waves:     116
 k-point  4 :   0.2727 0.0000 0.0000  plane waves:     114
 k-point  5 :   0.3636 0.0000 0.0000  plane waves:     114
 k-point  6 :   0.4545 0.0000 0.0000  plane waves:     108
 k-point  7 :   0.0909 0.0909 0.0000  plane waves:     113
 k-point  8 :   0.1818 0.0909 0.0000  plane waves:     116
 k-point  9 :   0.2727 0.0909 0.0000  plane waves:     110
 k-point 10 :   0.3636 0.0909 0.0000  plane waves:     109
 k-point 11 :   0.4545 0.0909 0.0000  plane waves:     112
 k-point 12 :  -0.4545 0.0909 0.0000  plane waves:     112
 k-point 13 :  -0.3636 0.0909 0.0000  plane waves:     111
 k-point 14 :  -0.2727 0.0909 0.0000  plane waves:     109
 k-point 15 :  -0.1818 0.0909 0.0000  plane waves:     113
 k-point 16 :  -0.0909 0.0909 0.0000  plane waves:     117
 k-point 17 :   0.1818 0.1818 0.0000  plane waves:     113
 k-point 18 :   0.2727 0.1818 0.0000  plane waves:     114
 k-point 19 :   0.3636 0.1818 0.0000  plane waves:     112
 k-point 20 :   0.4545 0.1818 0.0000  plane waves:     113
 k-point 21 :  -0.4545 0.1818 0.0000  plane waves:     111
 k-point 22 :  -0.3636 0.1818 0.0000  plane waves:     109
 k-point 23 :  -0.2727 0.1818 0.0000  plane waves:     112
 k-point 24 :  -0.1818 0.1818 0.0000  plane waves:     111
 k-point 25 :   0.2727 0.2727 0.0000  plane waves:     113
 k-point 26 :   0.3636 0.2727 0.0000  plane waves:     113
 k-point 27 :   0.4545 0.2727 0.0000  plane waves:     108
 k-point 28 :  -0.4545 0.2727 0.0000  plane waves:     108
 k-point 29 :  -0.3636 0.2727 0.0000  plane waves:     107
 k-point 30 :  -0.2727 0.2727 0.0000  plane waves:     107
 k-point 31 :   0.3636 0.3636 0.0000  plane waves:     113
 k-point 32 :   0.4545 0.3636 0.0000  plane waves:     110
 k-point 33 :  -0.4545 0.3636 0.0000  plane waves:     108
 k-point 34 :  -0.3636 0.3636 0.0000  plane waves:     110
 k-point 35 :   0.4545 0.4545 0.0000  plane waves:     112
 k-point 36 :  -0.4545 0.4545 0.0000  plane waves:     114
 k-point 37 :   0.2727 0.1818 0.0909  plane waves:     115
 k-point 38 :   0.3636 0.1818 0.0909  plane waves:     111
 k-point 39 :   0.4545 0.1818 0.0909  plane waves:     110
 k-point 40 :  -0.4545 0.1818 0.0909  plane waves:     109
 k-point 41 :   0.3636 0.2727 0.0909  plane waves:     114
 k-point 42 :   0.4545 0.2727 0.0909  plane waves:     114
 k-point 43 :  -0.4545 0.2727 0.0909  plane waves:     113
 k-point 44 :  -0.3636 0.2727 0.0909  plane waves:     111
 k-point 45 :  -0.2727 0.2727 0.0909  plane waves:     112
 k-point 46 :  -0.1818 0.2727 0.0909  plane waves:     110
 k-point 47 :   0.4545 0.3636 0.0909  plane waves:     111
 k-point 48 :  -0.4545 0.3636 0.0909  plane waves:     107
 k-point 49 :  -0.3636 0.3636 0.0909  plane waves:     108
 k-point 50 :  -0.2727 0.3636 0.0909  plane waves:     109
 k-point 51 :  -0.4545 0.4545 0.0909  plane waves:     110
 k-point 52 :  -0.3636 0.4545 0.0909  plane waves:     106
 k-point 53 :  -0.4545 0.3636 0.1818  plane waves:     109
 k-point 54 :  -0.3636 0.3636 0.1818  plane waves:     110
 k-point 55 :  -0.3636 0.4545 0.1818  plane waves:     105
 k-point 56 :  -0.2727 0.4545 0.1818  plane waves:     110

 maximum and minimum number of plane-waves per node :       117      105

 maximum number of plane-waves:       117
 maximum index in each direction: 
   IXMAX=    3   IYMAX=    3   IZMAX=    3
   IXMIN=   -3   IYMIN=   -3   IZMIN=   -3


 serial   3D FFT for wavefunctions
 parallel 3D FFT for charge:
    minimum data exchange during FFTs selected (reduces bandwidth)


 total amount of memory used by VASP MPI-rank0    31755. kBytes
=======================================================================

   base      :      30000. kBytes
   nonl-proj :        969. kBytes
   fftplans  :         93. kBytes
   grid      :        404. kBytes
   one-center:         31. kBytes
   wavefun   :        258. kBytes
 
     INWAV:  cpu time    0.0000: real time    0.0000
 Broyden mixing: mesh for mixing (old mesh)
   NGX =  7   NGY =  7   NGZ =  7
  (NGX  = 28   NGY  = 28   NGZ  = 28)
  gives a total of    343 points

 initial charge density was supplied:
 charge density of overlapping atoms calculated
 number of electron      10.0000000 magnetization       1.0000000
 keeping initial charge density in first step


--------------------------------------------------------------------------------------------------------


 Maximum index for augmentation-charges          914 (set IRDMAX)


--------------------------------------------------------------------------------------------------------


 First call to EWALD:  gamma=   0.797
 Maximum number of real-space cells 3x 3x 3
 Maximum number of reciprocal cells 3x 3x 3

    FEWALD:  cpu time    0.0029: real time    0.0029


--------------------------------------- Iteration      1(   1)  ---------------------------------------


    POTLOK:  cpu time    0.0138: real time    0.0280
    SETDIJ:  cpu time    0.0119: real time    0.0119
     EDDAV:  cpu time    0.3669: real time    0.3669
       DOS:  cpu time    0.0017: real time    0.0017
    --------------------------------------------
      LOOP:  cpu time    0.3942: real time    0.4085

 eigenvalue-minimisations  :  2916
 total energy-change (2. order) :-0.3562409E+00  (-0.3433617E+03)
 number of electron      10.0000000 magnetization       1.0000000
 augmentation part       10.0000000 magnetization       1.0000000

 Free energy of the ion-electron system (eV)
  ---------------------------------------------------
  alpha Z        PSCENC =        46.37681830
  Ewald energy   TEWEN  =      -935.14218197
  -Hartree energ DENC   =      -246.59910884
  -exchange      EXHF   =         0.00000000
  -V(xc)+E(xc)   XCENC  =        31.74631735
  PAW double counting   =       962.83317360    -1029.67071227
  entropy T*S    EENTRO =         0.00061646
  eigenvalues    EBANDS =        92.46276183
  atomic energy  EATOM  =      1077.63607467
  Solvation  Ediel_sol  =         0.00000000
  ---------------------------------------------------
  free energy    TOTEN  =        -0.35624087 eV

  energy without entropy =       -0.35685733  energy(sigma->0) =       -0.35644635


--------------------------------------------------------------------------------------------------------




--------------------------------------- Iteration      1(   2)  ---------------------------------------


     EDDAV:  cpu time    0.4041: real time    0.4052
       DOS:  cpu time    0.0009: real time    0.0009
    --------------------------------------------
      LOOP:  cpu time    0.4050: real time    0.4061

 eigenvalue-minimisations  :  3168
 total energy-change (2. order) :-0.6105855E+01  (-0.5900696E+01)
 number of electron      10.0000000 magnetization       1.0000000
 augmentation part       10.0000000 magnetization       1.0000000

 Free energy of the ion-electron system (eV)
  ---------------------------------------------------
  alpha Z        PSCENC =        46.37681830
  Ewald energy   TEWEN  =      -935.14218197
  -Hartree energ DENC   =      -246.59910884
  -exchange      EXHF   =         0.00000000
  -V(xc)+E(xc)   XCENC  =        31.74631735
  PAW double counting   =       962.83317360    -1029.67071227
  entropy T*S    EENTRO =        -0.00099819
  eigenvalues    EBANDS =        86.35852106
  atomic energy  EATOM  =      1077.63607467
  Solvation  Ediel_sol  =         0.00000000
  ---------------------------------------------------
  free energy    TOTEN  =        -6.46209629 eV

  energy without entropy =       -6.46109810  energy(sigma->0) =       -6.46176356


--------------------------------------------------------------------------------------------------------




--------------------------------------- Iteration      1(   3)  ---------------------------------------


     EDDAV:  cpu time    0.2807: real time    0.2808
       DOS:  cpu time    0.0009: real time    0.0009
    --------------------------------------------
      LOOP:  cpu time    0.2817: real time    0.2817

 eigenvalue-minimisations  :  3444
 total energy-change (2. order) :-0.2054288E-01  (-0.2053664E-01)
 number of electron      10.0000000 magnetization       1.0000000
 augmentation part       10.0000000 magnetization       1.0000000

 Free energy of the ion-electron system (eV)
  ---------------------------------------------------
  alpha Z        PSCENC =        46.37681830
  Ewald energy   TEWEN  =      -935.14218197
  -Hartree energ DENC   =      -246.59910884
  -exchange      EXHF   =         0.00000000
  -V(xc)+E(xc)   XCENC  =        31.74631735
  PAW double counting   =       962.83317360    -1029.67071227
  entropy T*S    EENTRO =        -0.00101421
  eigenvalues    EBANDS =        86.33799420
  atomic energy  EATOM  =      1077.63607467
  Solvation  Ediel_sol  =         0.00000000
  ---------------------------------------------------
  free energy    TOTEN  =        -6.48263917 eV

  energy without entropy =       -6.48162496  energy(sigma->0) =       -6.48230110


--------------------------------------------------------------------------------------------------------




--------------------------------------- Iteration      1(   4)  ---------------------------------------


     EDDAV:  cpu time    0.3083: real time    0.3084
       DOS:  cpu time    0.0009: real time    0.0009
    --------------------------------------------
      LOOP:  cpu time    0.3092: real time    0.3093

 eigenvalue-minimisations  :  3672
 total energy-change (2. order) :-0.6280278E-04  (-0.6280340E-04)
 number of electron      10.0000000 magnetization       1.0000000
 augmentation part       10.0000000 magnetization       1.0000000

 Free energy of the ion-electron system (eV)
  ---------------------------------------------------
  alpha Z        PSCENC =        46.37681830
  Ewald energy   TEWEN  =      -935.14218197
  -Hartree energ DENC   =      -246.59910884
  -exchange      EXHF   =         0.00000000
  -V(xc)+E(xc)   XCENC  =        31.74631735
  PAW double counting   =       962.83317360    -1029.67071227
  entropy T*S    EENTRO =        -0.00101462
  eigenvalues    EBANDS =        86.33793180
  atomic energy  EATOM  =      1077.63607467
  Solvation  Ediel_sol  =         0.00000000
  ---------------------------------------------------
  free energy    TOTEN  =        -6.48270197 eV

  energy without entropy =       -6.48168736  energy(sigma->0) =       -6.48236377


--------------------------------------------------------------------------------------------------------




--------------------------------------- Iteration      1(   5)  ---------------------------------------


     EDDAV:  cpu time    0.2999: real time    0.3007
       DOS:  cpu time    0.0009: real time    0.0009
    CHARGE:  cpu time    0.0072: real time    0.0072
    MIXING:  cpu time    0.0003: real time    0.0003
    --------------------------------------------
      LOOP:  cpu time    0.3084: real time    0.3092

 eigenvalue-minimisations  :  3600
 total energy-change (2. order) :-0.1915355E-06  (-0.1906959E-06)
 number of electron      10.0000001 magnetization       0.6871222
 augmentation part        5.6090852 magnetization       0.5667248

 Broyden mixing:
  rms(total) = 0.97253E+00    rms(broyden)= 0.97229E+00
  rms(prec ) = 0.32125E+01
  weight for this iteration     100.00

 Free energy of the ion-electron system (eV)
  ---------------------------------------------------
  alpha Z        PSCENC =        46.37681830
  Ewald energy   TEWEN  =      -935.14218197
  -Hartree energ DENC   =      -246.59910884
  -exchange      EXHF   =         0.00000000
  -V(xc)+E(xc)   XCENC  =        31.74631735
  PAW double counting   =       962.83317360    -1029.67071227
  entropy T*S    EENTRO =        -0.00101462
  eigenvalues    EBANDS =        86.33793162
  atomic energy  EATOM  =      1077.63607467
  Solvation  Ediel_sol  =         0.00000000
  ---------------------------------------------------
  free energy    TOTEN  =        -6.48270217 eV

  energy without entropy =       -6.48168755  energy(sigma->0) =       -6.48236396


--------------------------------------------------------------------------------------------------------




--------------------------------------- Iteration      1(   6)  ---------------------------------------


    POTLOK:  cpu time    0.0052: real time    0.0052
    SETDIJ:  cpu time    0.0064: real time    0.0065
     EDDAV:  cpu time    0.2237: real time    0.2237
       DOS:  cpu time    0.0009: real time    0.0009
    CHARGE:  cpu time    0.0068: real time    0.0068
    MIXING:  cpu time    0.0003: real time    0.0003
    --------------------------------------------
      LOOP:  cpu time    0.2433: real time    0.2433

 eigenvalue-minimisations  :  3036
 total energy-change (2. order) : 0.6721350E+00  (-0.1778246E+01)
 number of electron      10.0000001 magnetization       0.5443734
 augmentation part        6.4835911 magnetization       0.5432297

 Broyden mixing:
  rms(total) = 0.57825E+00    rms(broyden)= 0.57820E+00
  rms(prec ) = 0.14988E+01
  weight for this iteration     100.00

 eigenvalues of (default mixing * dielectric matrix)
  average eigenvalue GAMMA=   0.6826
  0.6826

 Free energy of the ion-electron system (eV)
  ---------------------------------------------------
  alpha Z        PSCENC =        46.37681830
  Ewald energy   TEWEN  =      -935.14218197
  -Hartree energ DENC   =      -222.28802045
  -exchange      EXHF   =         0.00000000
  -V(xc)+E(xc)   XCENC  =        30.48942129
  PAW double counting   =      1022.99521269    -1085.41639597
  entropy T*S    EENTRO =        -0.00354806
  eigenvalues    EBANDS =        59.54205230
  atomic energy  EATOM  =      1077.63607467
  Solvation  Ediel_sol  =         0.00000000
  ---------------------------------------------------
  free energy    TOTEN  =        -5.81056720 eV

  energy without entropy =       -5.80701914  energy(sigma->0) =       -5.80938451


--------------------------------------------------------------------------------------------------------




--------------------------------------- Iteration      1(   7)  ---------------------------------------


    POTLOK:  cpu time    0.0050: real time    0.0050
    SETDIJ:  cpu time    0.0061: real time    0.0061
     EDDAV:  cpu time    0.2276: real time    0.2277
       DOS:  cpu time    0.0009: real time    0.0009
    CHARGE:  cpu time    0.0070: real time    0.0070
    MIXING:  cpu time    0.0002: real time    0.0002
    --------------------------------------------
      LOOP:  cpu time    0.2468: real time    0.2469

 eigenvalue-minimisations  :  3096
 total energy-change (2. order) : 0.3283802E+00  (-0.2991839E+00)
 number of electron      10.0000001 magnetization       0.5853448
 augmentation part        6.1246119 magnetization       0.5687387

 Broyden mixing:
  rms(total) = 0.17508E+00    rms(broyden)= 0.17505E+00
  rms(prec ) = 0.37437E+00
  weight for this iteration     100.00

 eigenvalues of (default mixing * dielectric matrix)
  average eigenvalue GAMMA=   0.9052
  1.2040  0.6063

 Free energy of the ion-electron system (eV)
  ---------------------------------------------------
  alpha Z        PSCENC =        46.37681830
  Ewald energy   TEWEN  =      -935.14218197
  -Hartree energ DENC   =      -229.72215016
  -exchange      EXHF   =         0.00000000
  -V(xc)+E(xc)   XCENC  =        30.84698784
  PAW double counting   =      1056.52310876    -1122.72260652
  entropy T*S    EENTRO =        -0.00228838
  eigenvalues    EBANDS =        70.72405051
  atomic energy  EATOM  =      1077.63607467
  Solvation  Ediel_sol  =         0.00000000
  ---------------------------------------------------
  free energy    TOTEN  =        -5.48218696 eV

  energy without entropy =       -5.47989857  energy(sigma->0) =       -5.48142416


--------------------------------------------------------------------------------------------------------




--------------------------------------- Iteration      1(   8)  ---------------------------------------


    POTLOK:  cpu time    0.0049: real time    0.0050
    SETDIJ:  cpu time    0.0062: real time    0.0062
     EDDAV:  cpu time    0.2636: real time    0.2637
       DOS:  cpu time    0.0009: real time    0.0009
    CHARGE:  cpu time    0.0069: real time    0.0069
    MIXING:  cpu time    0.0002: real time    0.0002
    --------------------------------------------
      LOOP:  cpu time    0.2827: real time    0.2829

 eigenvalue-minimisations  :  3408
 total energy-change (2. order) : 0.1473074E-01  (-0.1964707E-02)
 number of electron      10.0000001 magnetization       0.5741156
 augmentation part        6.1525711 magnetization       0.5537509

 Broyden mixing:
  rms(total) = 0.87078E-01    rms(broyden)= 0.87076E-01
  rms(prec ) = 0.14431E+00
  weight for this iteration     100.00

 eigenvalues of (default mixing * dielectric matrix)
  average eigenvalue GAMMA=   1.0012
  1.7739  0.6149  0.6149

 Free energy of the ion-electron system (eV)
  ---------------------------------------------------
  alpha Z        PSCENC =        46.37681830
  Ewald energy   TEWEN  =      -935.14218197
  -Hartree energ DENC   =      -227.39061922
  -exchange      EXHF   =         0.00000000
  -V(xc)+E(xc)   XCENC  =        30.74162988
  PAW double counting   =      1099.57822589    -1167.08628438
  entropy T*S    EENTRO =        -0.00251052
  eigenvalues    EBANDS =        69.82139113
  atomic energy  EATOM  =      1077.63607467
  Solvation  Ediel_sol  =         0.00000000
  ---------------------------------------------------
  free energy    TOTEN  =        -5.46745622 eV

  energy without entropy =       -5.46494569  energy(sigma->0) =       -5.46661938


--------------------------------------------------------------------------------------------------------




--------------------------------------- Iteration      1(   9)  ---------------------------------------


    POTLOK:  cpu time    0.0049: real time    0.0050
    SETDIJ:  cpu time    0.0061: real time    0.0061
     EDDAV:  cpu time    0.3262: real time    0.3269
       DOS:  cpu time    0.0009: real time    0.0009
    CHARGE:  cpu time    0.0071: real time    0.0071
    MIXING:  cpu time    0.0002: real time    0.0002
    --------------------------------------------
      LOOP:  cpu time    0.3454: real time    0.3462

 eigenvalue-minimisations  :  3960
 total energy-change (2. order) : 0.2140076E-02  (-0.1313723E-03)
 number of electron      10.0000001 magnetization       0.5712976
 augmentation part        6.1595861 magnetization       0.5520583

 Broyden mixing:
  rms(total) = 0.24927E-01    rms(broyden)= 0.24926E-01
  rms(prec ) = 0.56771E-01
  weight for this iteration     100.00

 eigenvalues of (default mixing * dielectric matrix)
  average eigenvalue GAMMA=   1.1458
  2.3323  0.9990  0.6514  0.6003

 Free energy of the ion-electron system (eV)
  ---------------------------------------------------
  alpha Z        PSCENC =        46.37681830
  Ewald energy   TEWEN  =      -935.14218197
  -Hartree energ DENC   =      -226.60753709
  -exchange      EXHF   =         0.00000000
  -V(xc)+E(xc)   XCENC  =        30.70368724
  PAW double counting   =      1116.60323738    -1184.62418430
  entropy T*S    EENTRO =        -0.00254974
  eigenvalues    EBANDS =        69.59131937
  atomic energy  EATOM  =      1077.63607467
  Solvation  Ediel_sol  =         0.00000000
  ---------------------------------------------------
  free energy    TOTEN  =        -5.46531614 eV

  energy without entropy =       -5.46276640  energy(sigma->0) =       -5.46446623


--------------------------------------------------------------------------------------------------------




--------------------------------------- Iteration      1(  10)  ---------------------------------------


    POTLOK:  cpu time    0.0050: real time    0.0053
    SETDIJ:  cpu time    0.0064: real time    0.0064
     EDDAV:  cpu time    0.2803: real time    0.2803
       DOS:  cpu time    0.0009: real time    0.0009
    CHARGE:  cpu time    0.0070: real time    0.0070
    MIXING:  cpu time    0.0003: real time    0.0003
    --------------------------------------------
      LOOP:  cpu time    0.2999: real time    0.3001

 eigenvalue-minimisations  :  3552
 total energy-change (2. order) : 0.5570399E-03  (-0.7374725E-04)
 number of electron      10.0000001 magnetization       0.5750173
 augmentation part        6.1647036 magnetization       0.5567898

 Broyden mixing:
  rms(total) = 0.42303E-02    rms(broyden)= 0.42293E-02
  rms(prec ) = 0.48482E-02
  weight for this iteration     100.00

 eigenvalues of (default mixing * dielectric matrix)
  average eigenvalue GAMMA=   1.1233
  2.3689  1.1168  0.8833  0.6238  0.6238

 Free energy of the ion-electron system (eV)
  ---------------------------------------------------
  alpha Z        PSCENC =        46.37681830
  Ewald energy   TEWEN  =      -935.14218197
  -Hartree energ DENC   =      -225.98356311
  -exchange      EXHF   =         0.00000000
  -V(xc)+E(xc)   XCENC  =        30.67604046
  PAW double counting   =      1131.57815124    -1200.02332963
  entropy T*S    EENTRO =        -0.00257765
  eigenvalues    EBANDS =        69.41980858
  atomic energy  EATOM  =      1077.63607467
  Solvation  Ediel_sol  =         0.00000000
  ---------------------------------------------------
  free energy    TOTEN  =        -5.46475910 eV

  energy without entropy =       -5.46218145  energy(sigma->0) =       -5.46389988


--------------------------------------------------------------------------------------------------------




--------------------------------------- Iteration      1(  11)  ---------------------------------------


    POTLOK:  cpu time    0.0050: real time    0.0050
    SETDIJ:  cpu time    0.0062: real time    0.0062
     EDDAV:  cpu time    0.2314: real time    0.2315
       DOS:  cpu time    0.0009: real time    0.0009
    CHARGE:  cpu time    0.0069: real time    0.0069
    MIXING:  cpu time    0.0002: real time    0.0002
    --------------------------------------------
      LOOP:  cpu time    0.2506: real time    0.2508

 eigenvalue-minimisations  :  3096
 total energy-change (2. order) :-0.5926903E-05  (-0.5650886E-06)
 number of electron      10.0000001 magnetization       0.5731214
 augmentation part        6.1648552 magnetization       0.5548132

 Broyden mixing:
  rms(total) = 0.23040E-02    rms(broyden)= 0.23033E-02
  rms(prec ) = 0.24664E-02
  weight for this iteration     100.00

 eigenvalues of (default mixing * dielectric matrix)
  average eigenvalue GAMMA=   1.2837
  2.3040  2.3040  1.0616  0.6133  0.6376  0.7816

 Free energy of the ion-electron system (eV)
  ---------------------------------------------------
  alpha Z        PSCENC =        46.37681830
  Ewald energy   TEWEN  =      -935.14218197
  -Hartree energ DENC   =      -225.97027824
  -exchange      EXHF   =         0.00000000
  -V(xc)+E(xc)   XCENC  =        30.67609092
  PAW double counting   =      1132.91723481    -1201.36567582
  entropy T*S    EENTRO =        -0.00258139
  eigenvalues    EBANDS =        69.40973369
  atomic energy  EATOM  =      1077.63607467
  Solvation  Ediel_sol  =         0.00000000
  ---------------------------------------------------
  free energy    TOTEN  =        -5.46476503 eV

  energy without entropy =       -5.46218364  energy(sigma->0) =       -5.46390457


--------------------------------------------------------------------------------------------------------




--------------------------------------- Iteration      1(  12)  ---------------------------------------


    POTLOK:  cpu time    0.0048: real time    0.0049
    SETDIJ:  cpu time    0.0062: real time    0.0061
     EDDAV:  cpu time    0.2791: real time    0.2798
       DOS:  cpu time    0.0009: real time    0.0009
    --------------------------------------------
      LOOP:  cpu time    0.2910: real time    0.2918

 eigenvalue-minimisations  :  3516
 total energy-change (2. order) : 0.4628585E-06  (-0.7414108E-07)
 number of electron      10.0000001 magnetization       0.5731214
 augmentation part        6.1648552 magnetization       0.5548132

 Free energy of the ion-electron system (eV)
  ---------------------------------------------------
  alpha Z        PSCENC =        46.37681830
  Ewald energy   TEWEN  =      -935.14218197
  -Hartree energ DENC   =      -225.98943529
  -exchange      EXHF   =         0.00000000
  -V(xc)+E(xc)   XCENC  =        30.67705939
  PAW double counting   =      1133.20599195    -1201.63353071
  entropy T*S    EENTRO =        -0.00257971
  eigenvalues    EBANDS =        69.40701881
  atomic energy  EATOM  =      1077.63607467
  Solvation  Ediel_sol  =         0.00000000
  ---------------------------------------------------
  free energy    TOTEN  =        -5.46476456 eV

  energy without entropy =       -5.46218485  energy(sigma->0) =       -5.46390466


--------------------------------------------------------------------------------------------------------




 average (electrostatic) potential at core
  the test charge radii are     0.9791
  (the norm of the test charge is              1.0000)
       1 -82.1451
 
 
 
 E-fermi :   9.2046     XC(G=0): -13.1923     alpha+bet :-16.2879


 spin component 1

 k-point     1 :       0.0000    0.0000    0.0000
  band No.  band energies     occupation 
      1       0.2943      1.00000
      2       6.8512      1.00000
      3       6.8512      1.00000
      4       6.8512      1.00000
      5       7.9868      1.00000
      6       7.9868      1.00000
      7      32.8957      0.00000
      8      36.6559      0.00000
      9      36.6559      0.00000
     10      36.6559      0.00000
     11      39.7236      0.00000
     12      39.7237      0.00000

 k-point     2 :       0.0909    0.0000    0.0000
  band No.  band energies     occupation 
      1       0.6136      1.00000
      2       6.7739      1.00000
      3       6.9194      1.00000
      4       6.9194      1.00000
      5       7.9606      1.00000
      6       7.9606      1.00000
      7      31.4899      0.00000
      8      34.2466      0.00000
      9      36.0133      0.00000
     10      36.0133      0.00000
     11      40.7095      0.00000
     12      40.7095      0.00000

 k-point     3 :       0.1818    0.0000    0.0000
  band No.  band energies     occupation 
      1       1.5304      1.00000
      2       6.6001      1.00000
      3       7.0484      1.00000
      4       7.0484      1.00000
      5       7.9518      1.00000
      6       7.9518      1.00000
      7      27.0271      0.00000
      8      33.5200      0.00000
      9      35.0739      0.00000
     10      35.0739      0.00000
     11      40.7640      0.00000
     12      41.4421      0.00000

 k-point     4 :       0.2727    0.0000    0.0000
  band No.  band energies     occupation 
      1       2.8608      1.00000
      2       6.5595      1.00000
      3       7.0567      1.00000
      4       7.0567      1.00000
      5       8.1212      1.00000
      6       8.1212      1.00000
      7      22.4684      0.00000
      8      32.7648      0.00000
      9      34.3609      0.00000
     10      34.3609      0.00000
     11      39.6329      0.00000
     12      39.6329      0.00000

 k-point     5 :       0.3636    0.0000    0.0000
  band No.  band energies     occupation 
      1       4.0232      1.00000
      2       6.9543      1.00000
      3       6.9543      1.00000
      4       7.1888      1.00000
      5       8.4106      1.00000
      6       8.4106      1.00000
      7      18.3744      0.00000
      8      31.9475      0.00000
      9      33.9372      0.00000
     10      33.9372      0.00000
     11      37.8263      0.00000
     12      37.8263      0.00000

 k-point     6 :       0.4545    0.0000    0.0000
  band No.  band energies     occupation 
      1       4.4362      1.00000
      2       6.8736      1.00000
      3       6.8736      1.00000
      4       8.6183      1.00014
      5       8.6183      1.00014
      6       8.6184      1.00014
      7      15.3591      0.00000
      8      31.4521      0.00000
      9      33.7514      0.00000
     10      33.7514      0.00000
     11      36.8967      0.00000
     12      36.8967      0.00000

 k-point     7 :       0.0909    0.0909    0.0000
  band No.  band energies     occupation 
      1       0.7194      1.00000
      2       6.7035      1.00000
      3       6.9701      1.00000
      4       6.9701      1.00000
      5       7.8528      1.00000
      6       8.0409      1.00000
      7      32.0948      0.00000
      8      34.0932      0.00000
      9      34.0932      0.00000
     10      34.9794      0.00000
     11      41.4558      0.00000
     12      42.2383      0.00000

 k-point     8 :       0.1818    0.0909    0.0000
  band No.  band energies     occupation 
      1       1.4362      1.00000
      2       6.5269      1.00000
      3       7.1016      1.00000
      4       7.1113      1.00000
      5       7.7530      1.00000
      6       8.0935      1.00000
      7      28.8039      0.00000
      8      32.5528      0.00000
      9      32.6015      0.00000
     10      36.0080      0.00000
     11      39.5052      0.00000
     12      41.8690      0.00000

 k-point     9 :       0.2727    0.0909    0.0000
  band No.  band energies     occupation 
      1       2.6438      1.00000
      2       6.3824      1.00000
      3       7.0837      1.00000
      4       7.1832      1.00000
      5       7.9383      1.00000
      6       8.2388      1.00000
      7      24.1678      0.00000
      8      31.6205      0.00000
      9      31.8285      0.00000
     10      35.7381      0.00000
     11      38.9496      0.00000
     12      41.6191      0.00000

 k-point    10 :       0.3636    0.0909    0.0000
  band No.  band energies     occupation 
      1       3.9288      1.00000
      2       6.5753      1.00000
      3       6.9130      1.00000
      4       7.1172      1.00000
      5       8.4799      1.00000
      6       8.4915      1.00000
      7      19.8589      0.00000
      8      31.0354      0.00000
      9      31.1858      0.00000
     10      33.8374      0.00000
     11      39.2809      0.00000
     12      41.1104      0.00000

 k-point    11 :       0.4545    0.0909    0.0000
  band No.  band energies     occupation 
      1       4.5524      1.00000
      2       6.7588      1.00000
      3       7.0169      1.00000
      4       7.3500      1.00000
      5       8.6428      1.00026
      6       9.4792     -0.03271
      7      16.2990      0.00000
      8      30.1820      0.00000
      9      31.3761      0.00000
     10      32.5942      0.00000
     11      39.1326      0.00000
     12      39.5772      0.00000

 k-point    12 :      -0.4545    0.0909    0.0000
  band No.  band energies     occupation 
      1       4.6464      1.00000
      2       6.7360      1.00000
      3       6.9746      1.00000
      4       7.6893      1.00000
      5       8.6042      1.00009
      6      10.1777     -0.00000
      7      14.9625      0.00000
      8      29.4062      0.00000
      9      32.2795      0.00000
     10      32.3134      0.00000
     11      38.5252      0.00000
     12      39.2335      0.00000

 k-point    13 :      -0.3636    0.0909    0.0000
  band No.  band energies     occupation 
      1       4.4385      1.00000
      2       6.8243      1.00000
      3       7.0247      1.00000
      4       7.1503      1.00000
      5       8.3511      1.00000
      6       9.2582      0.28204
      7      17.3674      0.00000
      8      28.9858      0.00000
      9      32.8674      0.00000
     10      33.9181      0.00000
     11      37.9694      0.00000
     12      39.3670      0.00000

 k-point    14 :      -0.2727    0.0909    0.0000
  band No.  band energies     occupation 
      1       3.5475      1.00000
      2       6.4896      1.00000
      3       6.9761      1.00000
      4       7.1400      1.00000
      5       7.9939      1.00000
      6       8.6214      1.00015
      7      21.2454      0.00000
      8      29.0594      0.00000
      9      34.0849      0.00000
     10      36.2415      0.00000
     11      37.8342      0.00000
     12      39.0461      0.00000

 k-point    15 :      -0.1818    0.0909    0.0000
  band No.  band energies     occupation 
      1       2.2036      1.00000
      2       6.4545      1.00000
      3       7.0802      1.00000
      4       7.1756      1.00000
      5       7.7618      1.00000
      6       8.2345      1.00000
      7      25.6878      0.00000
      8      29.6153      0.00000
      9      35.5484      0.00000
     10      37.9838      0.00000
     11      38.2593      0.00000
     12      39.0689      0.00000

 k-point    16 :      -0.0909    0.0909    0.0000
  band No.  band energies     occupation 
      1       1.1330      1.00000
      2       6.6351      1.00000
      3       7.0211      1.00000
      4       7.0296      1.00000
      5       7.8258      1.00000
      6       8.0437      1.00000
      7      29.9590      0.00000
      8      31.0551      0.00000
      9      35.6230      0.00000
     10      37.8384      0.00000
     11      39.0233      0.00000
     12      40.0810      0.00000

 k-point    17 :       0.1818    0.1818    0.0000
  band No.  band energies     occupation 
      1       1.9271      1.00000
      2       6.3156      1.00000
      3       7.3091      1.00000
      4       7.3091      1.00000
      5       7.5407      1.00000
      6       8.1874      1.00000
      7      30.6838      0.00000
      8      30.6839      0.00000
      9      30.8150      0.00000
     10      32.1736      0.00000
     11      37.2924      0.00000
     12      45.4388      0.00000

 k-point    18 :       0.2727    0.1818    0.0000
  band No.  band energies     occupation 
      1       2.9145      1.00000
      2       6.0972      1.00000
      3       7.1822      1.00000
      4       7.4780      1.00000
      5       7.8374      1.00000
      6       8.3157      1.00000
      7      26.2533      0.00000
      8      29.3534      0.00000
      9      30.4170      0.00000
     10      32.2612      0.00000
     11      36.4847      0.00000
     12      44.8850      0.00000

 k-point    19 :       0.3636    0.1818    0.0000
  band No.  band energies     occupation 
      1       4.1130      1.00000
      2       6.0195      1.00000
      3       6.8984      1.00000
      4       7.4786      1.00000
      5       8.5306      1.00001
      6       8.6609      1.00041
      7      21.8190      0.00000
      8      28.6804      0.00000
      9      28.7503      0.00000
     10      31.8042      0.00000
     11      39.1207      0.00000
     12      43.9274      0.00000

 k-point    20 :       0.4545    0.1818    0.0000
  band No.  band energies     occupation 
      1       4.8869      1.00000
      2       6.2260      1.00000
      3       6.7895      1.00000
      4       7.3847      1.00000
      5       8.6754      1.00059
      6      10.0870     -0.00000
      7      17.8677      0.00000
      8      27.0192      0.00000
      9      28.7457      0.00000
     10      31.4521      0.00000
     11      42.4499      0.00000
     12      43.2115      0.00000

 k-point    21 :      -0.4545    0.1818    0.0000
  band No.  band energies     occupation 
      1       5.0904      1.00000
      2       6.3444      1.00000
      3       6.9723      1.00000
      4       7.3056      1.00000
      5       8.6103      1.00011
      6      11.7824     -0.00000
      7      15.1891      0.00000
      8      25.6547      0.00000
      9      29.5940      0.00000
     10      31.5410      0.00000
     11      41.9979      0.00000
     12      42.2945      0.00000

 k-point    22 :      -0.3636    0.1818    0.0000
  band No.  band energies     occupation 
      1       5.0608      1.00000
      2       6.4749      1.00000
      3       6.7884      1.00000
      4       7.2996      1.00000
      5       8.3263      1.00000
      6      10.8824     -0.00000
      7      16.7812      0.00000
      8      24.8261      0.00000
      9      31.1963      0.00000
     10      32.1615      0.00000
     11      41.2675      0.00000
     12      41.5306      0.00000

 k-point    23 :      -0.2727    0.1818    0.0000
  band No.  band energies     occupation 
      1       4.5415      1.00000
      2       6.3153      1.00000
      3       6.7141      1.00000
      4       7.3839      1.00000
      5       7.9088      1.00000
      6       9.5389     -0.01981
      7      20.4788      0.00000
      8      24.5973      0.00000
      9      33.3774      0.00000
     10      33.4282      0.00000
     11      40.1241      0.00000
     12      41.0516      0.00000

 k-point    24 :      -0.1818    0.1818    0.0000
  band No.  band energies     occupation 
      1       3.3411      1.00000
      2       6.2714      1.00000
      3       6.9604      1.00000
      4       7.4665      1.00000
      5       7.5768      1.00000
      6       8.7394      1.00243
      7      24.4636      0.00000
      8      25.2684      0.00000
      9      35.1344      0.00000
     10      36.1411      0.00000
     11      38.2188      0.00000
     12      41.3039      0.00000

 k-point    25 :       0.2727    0.2727    0.0000
  band No.  band energies     occupation 
      1       3.5713      1.00000
      2       5.8244      1.00000
      3       7.4496      1.00000
      4       7.8188      1.00000
      5       7.8188      1.00000
      6       8.3827      1.00000
      7      27.6822      0.00000
      8      27.6823      0.00000
      9      28.0842      0.00000
     10      29.8160      0.00000
     11      33.9007      0.00000
     12      49.1700      0.00000

 k-point    26 :       0.3636    0.2727    0.0000
  band No.  band energies     occupation 
      1       4.3676      1.00000
      2       5.6436      1.00000
      3       7.3509      1.00000
      4       7.9530      1.00000
      5       8.5484      1.00002
      6       8.6705      1.00052
      7      24.0723      0.00000
      8      25.8588      0.00000
      9      26.6983      0.00000
     10      30.5494      0.00000
     11      34.6830      0.00000
     12      48.8401      0.00000

 k-point    27 :       0.4545    0.2727    0.0000
  band No.  band energies     occupation 
      1       4.9898      1.00000
      2       5.6424      1.00000
      3       7.1231      1.00000
      4       7.8938      1.00000
      5       8.7012      1.00107
      6      10.4021     -0.00000
      7      20.0520      0.00000
      8      23.7985      0.00000
      9      26.5260      0.00000
     10      30.7456      0.00000
     11      38.0203      0.00000
     12      47.1647      0.00000

 k-point    28 :      -0.4545    0.2727    0.0000
  band No.  band energies     occupation 
      1       5.3444      1.00000
      2       5.8007      1.00000
      3       6.9124      1.00000
      4       7.7883      1.00000
      5       8.6377      1.00023
      6      12.8018     -0.00000
      7      16.5347      0.00000
      8      22.1996      0.00000
      9      27.2102      0.00000
     10      30.9031      0.00000
     11      42.2995      0.00000
     12      45.7169      0.00000

 k-point    29 :      -0.3636    0.2727    0.0000
  band No.  band energies     occupation 
      1       5.5633      1.00000
      2       6.0086      1.00000
      3       6.6275      1.00000
      4       7.7013      1.00000
      5       8.3596      1.00000
      6      13.0442     -0.00000
      7      16.4410      0.00000
      8      21.1874      0.00000
      9      28.6882      0.00000
     10      31.3638      0.00000
     11      44.6444      0.00000
     12      44.6903      0.00000

 k-point    30 :      -0.2727    0.2727    0.0000
  band No.  band energies     occupation 
      1       5.4073      1.00000
      2       6.2860      1.00000
      3       6.3416      1.00000
      4       7.6173      1.00000
      5       8.0196      1.00000
      6      10.9792     -0.00000
      7      19.5203      0.00000
      8      21.2468      0.00000
      9      30.8228      0.00000
     10      32.2249      0.00000
     11      42.5456      0.00000
     12      43.6323      0.00000

 k-point    31 :       0.3636    0.3636    0.0000
  band No.  band energies     occupation 
      1       4.5612      1.00000
      2       5.3946      1.00000
      3       8.3593      1.00000
      4       8.3593      1.00000
      5       8.5607      1.00003
      6       8.7089      1.00127
      7      23.1469      0.00000
      8      25.3886      0.00000
      9      25.3886      0.00000
     10      29.2010      0.00000
     11      32.6965      0.00000
     12      53.1102      0.00000

 k-point    32 :       0.4545    0.3636    0.0000
  band No.  band energies     occupation 
      1       4.7730      1.00000
      2       5.3081      1.00000
      3       8.0821      1.00000
      4       8.3935      1.00000
      5       8.7102      1.00131
      6      10.5561     -0.00000
      7      21.0086      0.00000
      8      22.6501      0.00000
      9      24.9177      0.00000
     10      29.9535      0.00000
     11      33.9124      0.00000
     12      51.1527      0.00000

 k-point    33 :      -0.4545    0.3636    0.0000
  band No.  band energies     occupation 
      1       5.0595      1.00000
      2       5.4113      1.00000
      3       7.5895      1.00000
      4       8.2825      1.00000
      5       8.6827      1.00070
      6      12.9711     -0.00000
      7      18.8706      0.00000
      8      19.7216      0.00000
      9      25.3695      0.00000
     10      30.4029      0.00000
     11      37.5141      0.00000
     12      49.2835      0.00000

 k-point    34 :      -0.3636    0.3636    0.0000
  band No.  band energies     occupation 
      1       5.4174      1.00000
      2       5.6524      1.00000
      3       7.0201      1.00000
      4       8.0735      1.00000
      5       8.4880      1.00000
      6      15.3718      0.00000
      7      15.7462      0.00000
      8      19.2146      0.00000
      9      26.6840      0.00000
     10      30.7691      0.00000
     11      42.1392      0.00000
     12      47.3004      0.00000

 k-point    35 :       0.4545    0.4545    0.0000
  band No.  band energies     occupation 
      1       4.6577      1.00000
      2       5.1477      1.00000
      3       8.6683      1.00050
      4       8.7304      1.00202
      5       8.7304      1.00202
      6      11.1107     -0.00000
      7      19.1191      0.00000
      8      24.1237      0.00000
      9      24.1238      0.00000
     10      28.9230      0.00000
     11      32.3347      0.00000
     12      53.5140      0.00000

 k-point    36 :      -0.4545    0.4545    0.0000
  band No.  band energies     occupation 
      1       4.7593      1.00000
      2       5.1842      1.00000
      3       8.3800      1.00000
      4       8.5944      1.00007
      5       8.7472      1.00284
      6      12.2902     -0.00000
      7      18.4174      0.00000
      8      22.0687      0.00000
      9      24.2822      0.00000
     10      29.7567      0.00000
     11      33.7019      0.00000
     12      52.1565      0.00000

 k-point    37 :       0.2727    0.1818    0.0909
  band No.  band energies     occupation 
      1       2.3034      1.00000
      2       6.3239      1.00000
      3       7.1221      1.00000
      4       7.3210      1.00000
      5       7.6851      1.00000
      6       8.2709      1.00000
      7      27.3538      0.00000
      8      28.0691      0.00000
      9      34.1488      0.00000
     10      34.6264      0.00000
     11      38.6070      0.00000
     12      41.7909      0.00000

 k-point    38 :       0.3636    0.1818    0.0909
  band No.  band energies     occupation 
      1       3.5500      1.00000
      2       6.1986      1.00000
      3       6.9255      1.00000
      4       7.4088      1.00000
      5       7.9149      1.00000
      6       8.6961      1.00096
      7      23.0882      0.00000
      8      27.0465      0.00000
      9      32.0648      0.00000
     10      35.1428      0.00000
     11      39.1892      0.00000
     12      40.9556      0.00000

 k-point    39 :       0.4545    0.1818    0.0909
  band No.  band energies     occupation 
      1       4.6095      1.00000
      2       6.4189      1.00000
      3       6.7114      1.00000
      4       7.3121      1.00000
      5       8.3333      1.00000
      6       9.5215     -0.02378
      7      18.9455      0.00000
      8      26.8521      0.00000
      9      30.1058      0.00000
     10      34.4674      0.00000
     11      39.0276      0.00000
     12      42.6017      0.00000

 k-point    40 :      -0.4545    0.1818    0.0909
  band No.  band energies     occupation 
      1       4.9469      1.00000
      2       6.4915      1.00000
      3       7.0217      1.00000
      4       7.2254      1.00000
      5       8.5652      1.00003
      6      10.9709     -0.00000
      7      15.6867      0.00000
      8      27.1603      0.00000
      9      28.6520      0.00000
     10      33.9270      0.00000
     11      38.7151      0.00000
     12      43.1013      0.00000

 k-point    41 :       0.3636    0.2727    0.0909
  band No.  band energies     occupation 
      1       3.8837      1.00000
[...]

 k-point    44 :      -0.3636    0.2727    0.0909
  band No.  band energies     occupation 
      1       5.9228      1.00000
      2       6.4423      1.00000
      3       7.2150      1.00000
      4       8.1550      1.00000
      5       9.2423      0.34339
      6      13.2125     -0.00000
      7      15.7601      0.00000
      8      23.5059      0.00000
      9      26.4286      0.00000
     10      34.1610      0.00000
     11      40.2272      0.00000
     12      46.8577      0.00000

 k-point    45 :      -0.2727    0.2727    0.0909
  band No.  band energies     occupation 
      1       5.6700      1.00000
      2       6.6638      1.00000
      3       6.9431      1.00000
      4       8.1983      1.00000
      5       8.9577      1.03544
      6      11.5010     -0.00000
      7      18.6233      0.00000
      8      22.8622      0.00000
      9      27.9230      0.00000
     10      35.2166      0.00000
     11      39.2760      0.00000
     12      44.9780      0.00000

 k-point    46 :      -0.1818    0.2727    0.0909
  band No.  band energies     occupation 
      1       4.7541      1.00000
      2       6.6564      1.00000
      3       7.1608      1.00000
      4       8.2773      1.00000
      5       8.5700      1.00003
      6      10.1713     -0.00000
      7      22.1983      0.00000
      8      23.1784      0.00000
      9      29.8926      0.00000
     10      36.8831      0.00000
     11      37.5852      0.00000
     12      42.4930      0.00000

 k-point    47 :       0.4545    0.3636    0.0909
  band No.  band energies     occupation 
      1       5.0467      1.00000
      2       6.0757      1.00000
      3       7.8780      1.00000
      4       8.9836      1.03286
      5       9.0993      0.88427
      6      10.3175     -0.00000
      7      23.2855      0.00000
      8      23.3054      0.00000
      9      24.1980      0.00000
     10      31.9386      0.00000
     11      35.0884      0.00000
     12      47.1950      0.00000

 k-point    48 :      -0.4545    0.3636    0.0909
  band No.  band energies     occupation 
      1       5.5032      1.00000
      2       6.1027      1.00000
      3       7.6596      1.00000
      4       8.7773      1.00502
      5       9.3689      0.00463
      6      12.2480     -0.00000
      7      19.7201      0.00000
      8      21.7219      0.00000
      9      23.8038      0.00000
     10      32.8625      0.00000
     11      37.9590      0.00000
     12      45.5009      0.00000

 k-point    49 :      -0.3636    0.3636    0.0909
  band No.  band energies     occupation 
      1       5.9015      1.00000
      2       6.2104      1.00000
      3       7.3452      1.00000
      4       8.5445      1.00002
      5       9.3432      0.04262
      6      14.7835      0.00000
      7      16.4659      0.00000
      8      20.4320      0.00000
      9      24.6047      0.00000
     10      33.3893      0.00000
     11      42.1220      0.00000
     12      44.0019      0.00000

 k-point    50 :      -0.2727    0.3636    0.0909
  band No.  band energies     occupation 
      1       6.1742      1.00000
      2       6.3535      1.00000
      3       6.9494      1.00000
      4       8.3888      1.00000
      5       9.1248      0.80980
      6      13.5297     -0.00000
      7      17.7123      0.00000
      8      20.2035      0.00000
      9      26.0386      0.00000
     10      34.2160      0.00000
     11      41.7179      0.00000
     12      46.1690      0.00000

 k-point    51 :      -0.4545    0.4545    0.0909
  band No.  band energies     occupation 
      1       5.2076      1.00000
      2       5.8377      1.00000
      3       8.5366      1.00001
      4       9.1040      0.87172
      5       9.4965     -0.02940
      6      12.3416     -0.00000
      7      19.4754      0.00000
      8      22.2160      0.00000
      9      22.8817      0.00000
     10      31.4340      0.00000
     11      34.6534      0.00000
     12      49.5230      0.00000

 k-point    52 :      -0.3636    0.4545    0.0909
  band No.  band energies     occupation 
      1       5.4925      1.00000
      2       5.9996      1.00000
      3       7.9793      1.00000
      4       8.8614      1.01787
      5       9.4944     -0.02986
      6      14.1509     -0.00000
      7      18.6721      0.00000
      8      19.4613      0.00000
      9      23.2809      0.00000
     10      32.6254      0.00000
     11      37.7928      0.00000
     12      46.9827      0.00000

 k-point    53 :      -0.4545    0.3636    0.1818
  band No.  band energies     occupation 
      1       5.6984      1.00000
      2       6.4121      1.00000
      3       6.9960      1.00000
      4       8.6021      1.00009
      5       9.0980      0.88759
      6      11.7697     -0.00000
      7      20.3563      0.00000
      8      21.6712      0.00000
      9      24.5898      0.00000
     10      36.4291      0.00000
     11      38.2060      0.00000
     12      42.6170      0.00000

 k-point    54 :      -0.3636    0.3636    0.1818
  band No.  band energies     occupation 
      1       6.0427      1.00000
      2       6.4459      1.00000
      3       6.9103      1.00000
      4       8.4464      1.00000
      5       9.3257      0.07744
      6      13.9917     -0.00000
      7      17.2510      0.00000
      8      21.6928      0.00000
      9      22.9784      0.00000
     10      37.0003      0.00000
     11      39.2295      0.00000
     12      44.0122      0.00000

 k-point    55 :      -0.3636    0.4545    0.1818
  band No.  band energies     occupation 
      1       5.7197      1.00000
      2       6.2596      1.00000
      3       7.3864      1.00000
      4       8.6701      1.00052
      5       9.4957     -0.02959
      6      14.3549     -0.00000
      7      19.3068      0.00000
      8      19.9554      0.00000
      9      21.1449      0.00000
     10      35.8352      0.00000
     11      39.0236      0.00000
     12      43.5745      0.00000

 k-point    56 :      -0.2727    0.4545    0.1818
  band No.  band energies     occupation 
      1       5.9194      1.00000
      2       6.5311      1.00000
      3       6.9775      1.00000
      4       8.4908      1.00000
      5       9.4933     -0.03007
      6      16.5532      0.00000
      7      16.5933      0.00000
      8      19.5849      0.00000
      9      21.4951      0.00000
     10      37.2879      0.00000
     11      41.0618      0.00000
     12      42.3333      0.00000


--------------------------------------------------------------------------------------------------------


 soft charge-density along one line, spin component           1
         0         1         2         3         4         5         6         7         8         9
 total charge-density along one line
 
 soft charge-density along one line, spin component           2
         0         1         2         3         4         5         6         7         8         9
 total charge-density along one line
 
 pseudopotential strength for first ion, spin component:           1
 -0.670  -0.000  -0.000  -0.000   0.000  -1.344  -0.000  -0.000
 -0.000  -0.670   0.000  -0.000  -0.000  -0.000  -1.344   0.000
 -0.000   0.000  -0.572   0.000   0.000  -0.000   0.000  -1.250
 -0.000  -0.000   0.000  -0.670   0.000  -0.000  -0.000   0.000
  0.000  -0.000   0.000   0.000  -0.572   0.000  -0.000   0.000
 -1.344  -0.000  -0.000  -0.000   0.000  -1.946  -0.000  -0.000
 -0.000  -1.344   0.000  -0.000  -0.000  -0.000  -1.946   0.000
 -0.000   0.000  -1.250   0.000   0.000  -0.000   0.000  -1.856
 -0.000  -0.000   0.000  -1.344   0.000  -0.000  -0.000   0.000
  0.000  -0.000   0.000   0.000  -1.250   0.000  -0.000   0.000
 -0.000  -0.000   0.000  -0.000   0.000  -0.000  -0.000   0.000
 -0.000  -0.000   0.000  -0.000   0.000  -0.000  -0.000   0.000
  0.000   0.000   0.000   0.000  -0.000   0.000   0.000   0.000
  0.000  -0.000   0.000   0.000   0.000   0.000   0.000   0.000
  0.000   0.000  -0.000   0.000   0.000   0.000   0.000   0.000
  0.000   0.000  -0.000  -0.000  -0.000   0.000   0.000  -0.000
 -0.000  -0.000   0.000  -0.000   0.000  -0.000  -0.000   0.000
  0.000  -0.000  -0.000   0.000   0.000   0.000   0.000  -0.000
 pseudopotential strength for first ion, spin component:           2
 -0.089  -0.000  -0.000  -0.000   0.000  -0.790  -0.000  -0.000
 -0.000  -0.089   0.000  -0.000  -0.000  -0.000  -0.790   0.000
 -0.000   0.000  -0.112   0.000  -0.000  -0.000   0.000  -0.812
 -0.000  -0.000   0.000  -0.089   0.000  -0.000  -0.000   0.000
  0.000  -0.000  -0.000   0.000  -0.112   0.000  -0.000  -0.000
 -0.790  -0.000  -0.000  -0.000   0.000  -1.418  -0.000  -0.000
 -0.000  -0.790   0.000  -0.000  -0.000  -0.000  -1.418   0.000
 -0.000   0.000  -0.812   0.000  -0.000  -0.000   0.000  -1.439
 -0.000  -0.000   0.000  -0.790   0.000  -0.000  -0.000   0.000
  0.000  -0.000  -0.000   0.000  -0.812   0.000  -0.000  -0.000
 -0.000  -0.000   0.000  -0.000  -0.000  -0.000  -0.000   0.000
 -0.000  -0.000   0.000  -0.000  -0.000  -0.000  -0.000   0.000
  0.000   0.000   0.000  -0.000   0.000   0.000   0.000  -0.000
 -0.000  -0.000   0.000   0.000   0.000  -0.000  -0.000   0.000
 -0.000  -0.000  -0.000   0.000   0.000   0.000  -0.000  -0.000
  0.000   0.000   0.000  -0.000   0.000   0.000   0.000   0.000
 -0.000  -0.000   0.000   0.000   0.000  -0.000  -0.000   0.000
 -0.000  -0.000  -0.000   0.000   0.000  -0.000  -0.000  -0.000
 total augmentation occupancy for first ion, spin component:           1
  2.661  -0.000  -0.000  -0.000   0.000  -1.165  -0.000  -0.000  -0.000  -0.000  -0.000  -0.000   0.000   0.000   0.000   0.000
 -0.000   2.661  -0.000  -0.000   0.000  -0.000  -1.165   0.000   0.000   0.000   0.000   0.000   0.000   0.000   0.000   0.000
 -0.000   0.000   3.377  -0.000  -0.000  -0.000   0.000  -1.473  -0.000   0.000  -0.000   0.000   0.000   0.000   0.000   0.000
  0.000  -0.000  -0.000   2.661   0.000  -0.000   0.000   0.000  -1.165   0.000   0.000  -0.000   0.000   0.000   0.000   0.000
  0.000   0.000  -0.000   0.000   3.377   0.000   0.000   0.000   0.000  -1.473  -0.000  -0.000   0.000   0.000   0.000   0.000
 -1.165  -0.000  -0.000   0.000   0.000   1.378   0.000   0.000   0.000  -0.000  -0.000   0.000   0.000   0.000   0.000   0.000
 -0.000  -1.165  -0.000   0.000   0.000   0.000   1.378   0.000  -0.000   0.000   0.000  -0.000   0.000   0.000   0.000   0.000
  0.000  -0.000  -1.473  -0.000   0.000   0.000   0.000   1.393   0.000   0.000   0.000   0.000   0.000   0.000   0.000   0.000
 -0.000   0.000  -0.000  -1.165  -0.000  -0.000  -0.000   0.000   1.378   0.000   0.000  -0.000   0.000   0.000   0.000   0.000
  0.000   0.000   0.000  -0.000  -1.473   0.000  -0.000   0.000   0.000   1.393   0.000   0.000   0.000   0.000   0.000   0.000
  0.000  -0.000  -0.000   0.000  -0.000   0.000  -0.000   0.000   0.000   0.000   2.250  -0.307   0.000   0.000   0.000   0.000
  0.000  -0.000   0.000  -0.000  -0.000   0.000  -0.000   0.000  -0.000   0.000  -0.307   0.049   0.000   0.000   0.000   0.000
  0.000   0.000   0.000   0.000   0.000   0.000   0.000   0.000   0.000   0.000   0.000   0.000   0.294   0.000   0.000  -0.030
  0.000   0.000   0.000   0.000   0.000   0.000   0.000   0.000   0.000   0.000   0.000   0.000   0.000   0.294   0.000   0.000
  0.000   0.000   0.000   0.000   0.000   0.000   0.000   0.000   0.000   0.000   0.000   0.000   0.000  -0.000   0.294  -0.000
  0.000   0.000   0.000   0.000   0.000   0.000   0.000   0.000   0.000   0.000   0.000   0.000  -0.030   0.000   0.000   0.004
  0.000   0.000   0.000   0.000   0.000   0.000   0.000   0.000   0.000   0.000   0.000   0.000   0.000  -0.030   0.000   0.000
  0.000   0.000   0.000   0.000   0.000   0.000   0.000   0.000   0.000   0.000   0.000   0.000  -0.000   0.000  -0.030  -0.000
 total augmentation occupancy for first ion, spin component:           2
  0.931   0.000  -0.000  -0.000   0.000  -0.453   0.000  -0.000   0.000  -0.000  -0.000  -0.000   0.000   0.000   0.000   0.000
  0.000   0.931  -0.000   0.000   0.000  -0.000  -0.453  -0.000   0.000   0.000   0.000  -0.000   0.000   0.000   0.000   0.000
  0.000   0.000   0.516   0.000   0.000  -0.000   0.000  -0.247   0.000   0.000  -0.000  -0.000   0.000   0.000   0.000   0.000
 -0.000   0.000   0.000   0.931   0.000   0.000   0.000  -0.000  -0.453   0.000   0.000   0.000   0.000   0.000   0.000   0.000
  0.000   0.000   0.000   0.000   0.516  -0.000   0.000   0.000   0.000  -0.247   0.000   0.000   0.000   0.000   0.000   0.000
 -0.453  -0.000  -0.000  -0.000   0.000   0.141   0.000   0.000  -0.000   0.000  -0.000  -0.000   0.000   0.000   0.000   0.000
 -0.000  -0.453   0.000   0.000  -0.000   0.000   0.141   0.000   0.000  -0.000  -0.000   0.000   0.000   0.000   0.000   0.000
 -0.000  -0.000  -0.247   0.000   0.000   0.000   0.000   0.059   0.000  -0.000  -0.000   0.000   0.000   0.000   0.000   0.000
  0.000  -0.000  -0.000  -0.453   0.000  -0.000   0.000   0.000   0.141   0.000   0.000   0.000   0.000   0.000   0.000   0.000
 -0.000   0.000  -0.000   0.000  -0.247   0.000   0.000   0.000  -0.000   0.059   0.000   0.000   0.000   0.000   0.000   0.000
 -0.000  -0.000  -0.000  -0.000   0.000  -0.000  -0.000  -0.000   0.000   0.000  -0.124   0.039   0.000   0.000   0.000   0.000
  0.000  -0.000  -0.000   0.000   0.000  -0.000   0.000   0.000   0.000   0.000   0.039  -0.008   0.000   0.000   0.000   0.000
  0.000   0.000   0.000   0.000   0.000   0.000   0.000   0.000   0.000   0.000   0.000   0.000  -0.018   0.000   0.000   0.002
  0.000   0.000   0.000   0.000   0.000   0.000   0.000   0.000   0.000   0.000   0.000   0.000   0.000  -0.018   0.000   0.000
  0.000   0.000   0.000   0.000   0.000   0.000   0.000   0.000   0.000   0.000   0.000   0.000   0.000   0.000  -0.018   0.000
  0.000   0.000   0.000   0.000   0.000   0.000   0.000   0.000   0.000   0.000   0.000   0.000   0.002   0.000   0.000  -0.000
  0.000   0.000   0.000   0.000   0.000   0.000   0.000   0.000   0.000   0.000   0.000   0.000   0.000   0.002   0.000   0.000
  0.000   0.000   0.000   0.000   0.000   0.000   0.000   0.000   0.000   0.000   0.000   0.000   0.000   0.000   0.002   0.000


------------------------ aborting loop because EDIFF is reached ----------------------------------------


 


 total charge     
 
# of ion       s       p       d       tot
------------------------------------------
    1        0.491   0.486   8.312   9.290
 


 magnetization (x)
 
# of ion       s       p       d       tot
------------------------------------------
    1       -0.008  -0.026   0.623   0.589
 
    CHARGE:  cpu time    0.0067: real time    0.0067
    FORLOC:  cpu time    0.0001: real time    0.0001
    FORNL :  cpu time    0.0061: real time    0.0061
    STRESS:  cpu time    0.0371: real time    0.0372
    FORCOR:  cpu time    0.0045: real time    0.0045
    FORHAR:  cpu time    0.0005: real time    0.0005
    MIXING:  cpu time    0.0003: real time    0.0003
    OFIELD:  cpu time    0.0000: real time    0.0000

  FORCE on cell =-STRESS in cart. coord.  units (eV):
  Direction    XX          YY          ZZ          XY          YZ          ZX
  --------------------------------------------------------------------------------------
  Alpha Z    46.37682    46.37682    46.37682
  Ewald    -311.71407  -311.71407  -311.71407     0.00000     0.00000     0.00000
  Hartree    75.32806    75.32806    75.32806     0.00000     0.00000     0.00000
  E(xc)     -55.00774   -55.00774   -55.00774    -0.00001    -0.00001    -0.00001
  Local      -1.18641    -1.18641    -1.18641     0.00022     0.00022     0.00022
  n-local    -7.46789   -10.16350    -7.76605    -3.26464     1.62111     2.75894
  augment   176.11443   176.11443   176.11443    -0.00017    -0.00017    -0.00017
  Kinetic    77.31325    80.10541    76.86299     1.46793    -1.36743    -1.19074
  Fock        0.00000     0.00000     0.00000     0.00000     0.00000     0.00000
  -------------------------------------------------------------------------------------
  Total      -0.46084    -0.46084    -0.46084     0.00000     0.00000     0.00000
  in kB     -67.14275   -67.14275   -67.14275     0.00000     0.00000     0.00000
  external pressure =      -67.14 kB  Pullay stress =        0.00 kB


 VOLUME and BASIS-vectors are now :
 -----------------------------------------------------------------------------
  energy-cutoff  :      270.00
  volume of cell :       11.00
      direct lattice vectors                 reciprocal lattice vectors
     1.765000000  1.765000000  0.000000000     0.283286119  0.283286119 -0.283286119
     0.000000000  1.765000000  1.765000000    -0.283286119  0.283286119  0.283286119
     1.765000000  0.000000000  1.765000000     0.283286119 -0.283286119  0.283286119

  length of vectors
     2.496086938  2.496086938  2.496086938     0.490665951  0.490665951  0.490665951


 FORCES acting on ions
    electron-ion (+dipol)            ewald-force                    non-local-force                 convergence-correction
 -----------------------------------------------------------------------------------------------
   -.291E-13 0.813E-15 -.437E-13   -.779E-15 -.103E-14 0.569E-15   0.000E+00 0.000E+00 0.000E+00   0.229E-14 0.111E-13 -.332E-13
 -----------------------------------------------------------------------------------------------
   -.291E-13 0.813E-15 -.437E-13   -.779E-15 -.103E-14 0.569E-15   0.000E+00 0.000E+00 0.000E+00   0.229E-14 0.111E-13 -.332E-13
 
 
 POSITION                                       TOTAL-FORCE (eV/Angst)
 -----------------------------------------------------------------------------------
      0.00000      0.00000      0.00000         0.000000     -0.000000      0.000000
 -----------------------------------------------------------------------------------
    total drift:                               -0.000000      0.000000     -0.000000


--------------------------------------------------------------------------------------------------------



  FREE ENERGIE OF THE ION-ELECTRON SYSTEM (eV)
  ---------------------------------------------------
  free  energy   TOTEN  =        -5.46476456 eV

  energy  without entropy=       -5.46218485  energy(sigma->0) =       -5.46390466
 


--------------------------------------------------------------------------------------------------------


    POTLOK:  cpu time    0.0110: real time    0.0110


--------------------------------------------------------------------------------------------------------


 writing wavefunctions
     LOOP+:  cpu time    3.8182: real time    4.0598
    4ORBIT:  cpu time    0.0000: real time    0.0000
 


 total charge     
 
# of ion       s       p       d       tot
------------------------------------------
    1        0.491   0.486   8.312   9.290
 


 magnetization (x)
 
# of ion       s       p       d       tot
------------------------------------------
    1       -0.008  -0.026   0.623   0.589
 

 total amount of memory used by VASP MPI-rank0    31755. kBytes
=======================================================================

   base      :      30000. kBytes
   nonl-proj :        969. kBytes
   fftplans  :         93. kBytes
   grid      :        404. kBytes
   one-center:         31. kBytes
   wavefun   :        258. kBytes
 
  
  
 General timing and accounting informations for this job:
 ========================================================
  
                  Total CPU time used (sec):        5.600
                            User time (sec):        4.976
                          System time (sec):        0.624
                         Elapsed time (sec):        6.874
  
                   Maximum memory used (kb):       66032.
                   Average memory used (kb):           0.
  
                          Minor page faults:        16043
                          Major page faults:           24
                 Voluntary context switches:         1320
