cd Si                                   
   5.80000000000000     
     0.000000    0.500000    0.500000
     0.500000    0.000000    0.500000
     0.500000    0.500000    0.000000
   Si
     2
Direct
  0.875000  0.875000  0.875000
  0.125000  0.125000  0.125000
 
   48   48   48
  22.591      22.606      22.638      22.652      22.599      22.424      22.046      21.430      20.614      19.712    
  18.887      18.307      18.098      18.307      18.887      19.712      20.614      21.430      22.046      22.424    
  22.599      22.652      22.638      22.606      22.591      22.606      22.638      22.652      22.599      22.424    
  22.046      21.430      20.614      19.712      18.887      18.307      18.098      18.307      18.887      19.712    
  20.614      21.430      22.046      22.424      22.599      22.652      22.638      22.606      22.606      22.878    
  23.131      23.309      23.331      23.076      22.470      21.533      20.382      19.216      18.264      17.729    
  17.729      18.264      19.216      20.382      21.533      22.470      23.076      23.331      23.309      23.131    
  22.878      22.606      22.354      22.135      21.937      21.731      21.478      21.143      20.688      20.102    
  19.429      18.764      18.226      17.925      17.925      18.226      18.764      19.429      20.102      20.688    
  21.143      21.478      21.731      21.937      22.135      22.354      22.638      23.131      23.552      23.801    
  23.717      23.182      22.179      20.810      19.290      17.902      16.928      16.578      16.928      17.902    
  19.290      20.810      22.179      23.182      23.717      23.801      23.552      23.131      22.638      22.135    
  21.661      21.229      20.829      20.438      20.027      19.576      19.080      18.544      18.008      17.541    
  17.220      17.105      17.220      17.541      18.008      18.544      19.080      19.576      20.027      20.438    
  20.829      21.229      21.661      22.135      22.652      23.309      23.801      23.935      23.544      22.560    
  21.049      19.220      17.385      15.900      15.069      15.069      15.900      17.385      19.220      21.049    
  22.560      23.544      23.935      23.801      23.309      22.652      21.937      21.229      20.563      19.953    
  19.392      18.861      18.342      17.826      17.316      16.835      16.414      16.096      15.924      15.924    
  16.096      16.414      16.835      17.316      17.826      18.342      18.861      19.392      19.953      20.563    
  21.229      21.937      22.599      23.331      23.717      23.544      22.685      21.153      19.120      16.903    
  14.901      13.507      13.008      13.507      14.901      16.903      19.120      21.153      22.685      23.544    
  23.717      23.331      22.599      21.731      20.829      19.953      19.139      18.396      17.721      17.100    
  16.523      15.985      15.495      15.072      14.741      14.529      14.456      14.529      14.741      15.072    
  15.495      15.985      16.523      17.100      17.721      18.396      19.139      19.953      20.829      21.731    
  22.424      23.076      23.182      22.560      21.153      19.077      16.616      14.182      12.226      11.137    
  11.137      12.226      14.182      16.616      19.077      21.153      22.560      23.182      23.076      22.424    
  21.478      20.438      19.392      18.396      17.481      16.654      15.914      15.251      14.659      14.136    
  13.690      13.335      13.085      12.956      12.956      13.085      13.335      13.690      14.136      14.659    
  15.251      15.914      16.654      17.481      18.396      19.392      20.438      21.478      22.046      22.470    
  22.179      21.049      19.120      16.616      13.920      11.506      9.8332      9.2351      9.8332      11.506    
  13.920      16.616      19.120      21.049      22.179      22.470      22.046      21.143      20.027      18.861    
  17.721      16.654      15.685      14.822      14.062      13.398      12.826      12.344      11.957      11.672    
  11.497      11.438      11.497      11.672      11.957      12.344      12.826      13.398      14.062      14.822    
  15.685      16.654      17.721      18.861      20.027      21.143      21.430      21.533      20.810      19.220    
  16.903      14.182      11.506      9.3658      8.1766      8.1766      9.3658      11.506      14.182      16.903    
  19.220      20.810      21.533      21.430      20.688      19.576      18.342      17.100      15.914      14.822    
  13.845      12.987      12.244      11.612      11.084      10.659      10.337      10.120      10.011      10.011    
  10.120      10.337      10.659      11.084      11.612      12.244      12.987      13.845      14.822      15.914    
  17.100      18.342      19.576      20.688      20.614      20.382      19.290      17.385      14.901      12.226    
  9.8332      8.1766      7.5845      8.1766      9.8332      12.226      14.901      17.385      19.290      20.382    
  20.614      20.102      19.080      17.826      16.523      15.251      14.062      12.987      12.038      11.218    
  10.522      9.9434      9.4758      9.1150      8.8584      8.7047      8.6535      8.7047      8.8584      9.1150    
  9.4758      9.9434      10.522      11.218      12.038      12.987      14.062      15.251      16.523      17.826    
  19.080      20.102      19.712      19.216      17.902      15.900      13.507      11.137      9.2351      8.1766    
  8.1766      9.2351      11.137      13.507      15.900      17.902      19.216      19.712      19.429      18.544    
  17.316      15.985      14.659      13.398      12.244      11.218      10.328      9.5704      8.9399      8.4282    
  8.0279      7.7328      7.5384      7.4420      7.4420      7.5384      7.7328      8.0279      8.4282      8.9399    
  9.5704      10.328      11.218      12.244      13.398      14.659      15.985      17.316      18.544      19.429    
  18.887      18.264      16.928      15.069      13.008      11.137      9.8332      9.3658      9.8332      11.137    
  13.008      15.069      16.928      18.264      18.887      18.764      18.008      16.835      15.495      14.136    
  12.826      11.612      10.522      9.5704      8.7576      8.0784      7.5241      7.0855      6.7538      6.5220    
  6.3850      6.3396      6.3850      6.5220      6.7538      7.0855      7.5241      8.0784      8.7576      9.5704    
  10.522      11.612      12.826      14.136      15.495      16.835      18.008      18.764      18.307      17.729    
  16.578      15.069      13.507      12.226      11.506      11.506      12.226      13.507      15.069      16.578    
  17.729      18.307      18.226      17.541      16.414      15.072      13.690      12.344      11.084      9.9434    
  8.9399      8.0784      7.3552      6.7616      6.2873      5.9217      5.6558      5.4825      5.3971      5.3971    
  5.4825      5.6558      5.9217      6.2873      6.7616      7.3552      8.0784      8.9399      9.9434      11.084    
  12.344      13.690      15.072      16.414      17.541      18.226      18.098      17.729      16.928      15.900    
  14.901      14.182      13.920      14.182      14.901      15.900      16.928      17.729      18.098      17.925    
  17.220      16.096      14.741      13.335      11.957      10.659      9.4758      8.4282      7.5241      6.7616    
  6.1325      5.6257      5.2294      4.9330      4.7276      4.6069      4.5671      4.6069      4.7276      4.9330    
  5.2294      5.6257      6.1325      6.7616      7.5241      8.4282      9.4758      10.659      11.957      13.335    
  14.741      16.096      17.220      17.925      18.307      18.264      17.902      17.385      16.903      16.616    
  16.616      16.903      17.385      17.902      18.264      18.307      17.925      17.105      15.924      14.529    
  13.085      11.672      10.337      9.1150      8.0279      7.0855      6.2873      5.6257      5.0893      4.6653    
  4.3416      4.1079      3.9564      3.8820      3.8820      3.9564      4.1079      4.3416      4.6653      5.0893    
  5.6257      6.2873      7.0855      8.0279      9.1150      10.337      11.672      13.085      14.529      15.924    
  17.105      17.925      18.887      19.216      19.290      19.220      19.120      19.077      19.120      19.220    
  19.290      19.216      18.887      18.226      17.220      15.924      14.456      12.956      11.497      10.120    
  8.8584      7.7328      6.7538      5.9217      5.2294      4.6653      4.2157      3.8674      3.6086      3.4302    
  3.3258      3.2913      3.3258      3.4302      3.6086      3.8674      4.2157      4.6653      5.2294      5.9217    
  6.7538      7.7328      8.8584      10.120      11.497      12.956      14.456      15.924      17.220      18.226    
  19.712      20.382      20.810      21.049      21.153      21.153      21.049      20.810      20.382      19.712    
  18.764      17.541      16.096      14.529      12.956      11.438      10.011      8.7047      7.5384      6.5220    
  5.6558      4.9330      4.3416      3.8674      3.4960      3.2144      3.0122      2.8815      2.8173      2.8173    
  2.8815      3.0122      3.2144      3.4960      3.8674      4.3416      4.9330      5.6558      6.5220      7.5384    
  8.7047      10.011      11.438      12.956      14.529      16.096      17.541      18.764      20.614      21.533    
  22.179      22.560      22.685      22.560      22.179      21.533      20.614      19.429      18.008      16.414    
  14.741      13.085      11.497      10.011      8.6535      7.4420      6.3850      5.4825      4.7276      4.1079    
  3.6086      3.2144      2.9111      2.6870      2.5329      2.4429      2.4132      2.4429      2.5329      2.6870    
  2.9111      3.2144      3.6086      4.1079      4.7276      5.4825      6.3850      7.4420      8.6535      10.011    
  11.497      13.085      14.741      16.414      18.008      19.429      21.430      22.470      23.182      23.544    
  23.544      23.182      22.470      21.430      20.102      18.544      16.835      15.072      13.335      11.672    
  10.120      8.7047      7.4420      6.3396      5.3971      4.6069      3.9564      3.4302      3.0122      2.6870    
  2.4417      2.2660      2.1527      2.0972      2.0972      2.1527      2.2660      2.4417      2.6870      3.0122    
  3.4302      3.9564      4.6069      5.3971      6.3396      7.4420      8.7047      10.120      11.672      13.335    
  15.072      16.835      18.544      20.102      22.046      23.076      23.717      23.935      23.717      23.076    
  22.046      20.688      19.080      17.316      15.495      13.690      11.957      10.337      8.8584      7.5384    
  6.3850      5.3971      4.5671      3.8820      3.3258      2.8815      2.5329      2.2660      2.0693      1.9344    
  1.8556      1.8296      1.8556      1.9344      2.0693      2.2660      2.5329      2.8815      3.3258      3.8820    
  4.5671      5.3971      6.3850      7.5384      8.8584      10.337      11.957      13.690      15.495      17.316    
  19.080      20.688      22.424      23.331      23.801      23.801      23.331      22.424      21.143      19.576    
  17.826      15.985      14.136      12.344      10.659      9.1150      7.7328      6.5220      5.4825      4.6069    
  3.8820      3.2913      2.8173      2.4429      2.1527      1.9344      1.7783      1.6776      1.6283      1.6283    
  1.6776      1.7783      1.9344      2.1527      2.4429      2.8173      3.2913      3.8820      4.6069      5.4825    
  6.5220      7.7328      9.1150      10.659      12.344      14.136      15.985      17.826      19.576      21.143    
  22.599      23.309      23.552      23.309      22.599      21.478      20.027      18.342      16.523      14.659    
  12.826      11.084      9.4758      8.0279      6.7538      5.6558      4.7276      3.9564      3.3258      2.8173    
  2.4132      2.0972      1.8556      1.6776      1.5556      1.4844      1.4609      1.4844      1.5556      1.6776    
  1.8556      2.0972      2.4132      2.8173      3.3258      3.9564      4.7276      5.6558      6.7538      8.0279    
  9.4758      11.084      12.826      14.659      16.523      18.342      20.027      21.478      22.652      23.131    
  23.131      22.652      21.731      20.438      18.861      17.100      15.251      13.398      11.612      9.9434    
  8.4282      7.0855      5.9217      4.9330      4.1079      3.4302      2.8815      2.4429      2.0972      1.8296    
  1.6283      1.4844      1.3916      1.3461      1.3461      1.3916      1.4844      1.6283      1.8296      2.0972    
  2.4429      2.8815      3.4302      4.1079      4.9330      5.9217      7.0855      8.4282      9.9434      11.612    
  13.398      15.251      17.100      18.861      20.438      21.731      22.638      22.878      22.638      21.937    
  20.829      19.392      17.721      15.914      14.062      12.244      10.522      8.9399      7.5241      6.2873    
  5.2294      4.3416      3.6086      3.0122      2.5329      2.1527      1.8556      1.6283      1.4609      1.3461    
  1.2790      1.2570      1.2790      1.3461      1.4609      1.6283      1.8556      2.1527      2.5329      3.0122    
  3.6086      4.3416      5.2294      6.2873      7.5241      8.9399      10.522      12.244      14.062      15.914    
  17.721      19.392      20.829      21.937      22.606      22.606      22.135      21.229      19.953      18.396    
  16.654      14.822      12.987      11.218      9.5704      8.0784      6.7616      5.6257      4.6653      3.8674    
  3.2144      2.6870      2.2660      1.9344      1.6776      1.4844      1.3461      1.2570      1.2133      1.2133    
  1.2570      1.3461      1.4844      1.6776      1.9344      2.2660      2.6870      3.2144      3.8674      4.6653    
  5.6257      6.7616      8.0784      9.5704      11.218      12.987      14.822      16.654      18.396      19.953    
  21.229      22.135      22.591      22.354      21.661      20.563      19.139      17.481      15.685      13.845    
  12.038      10.328      8.7576      7.3552      6.1325      5.0893      4.2157      3.4960      2.9111      2.4417    
  2.0693      1.7783      1.5556      1.3916      1.2790      1.2133      1.1916      1.2133      1.2790      1.3916    
  1.5556      1.7783      2.0693      2.4417      2.9111      3.4960      4.2157      5.0893      6.1325      7.3552    
  8.7576      10.328      12.038      13.845      15.685      17.481      19.139      20.563      21.661      22.354    
  22.606      22.135      21.229      19.953      18.396      16.654      14.822      12.987      11.218      9.5704    
  8.0784      6.7616      5.6257      4.6653      3.8674      3.2144      2.6870      2.2660      1.9344      1.6776    
  1.4844      1.3461      1.2570      1.2133      1.2133      1.2570      1.3461      1.4844      1.6776      1.9344    
  2.2660      2.6870      3.2144      3.8674      4.6653      5.6257      6.7616      8.0784      9.5704      11.218    
  12.987      14.822      16.654      18.396      19.953      21.229      22.135      22.606      22.638      21.937    
  20.829      19.392      17.721      15.914      14.062      12.244      10.522      8.9399      7.5241      6.2873    
  5.2294      4.3416      3.6086      3.0122      2.5329      2.1527      1.8556      1.6283      1.4609      1.3461    
  1.2790      1.2570      1.2790      1.3461      1.4609      1.6283      1.8556      2.1527      2.5329      3.0122    
  3.6086      4.3416      5.2294      6.2873      7.5241      8.9399      10.522      12.244      14.062      15.914    
  17.721      19.392      20.829      21.937      22.638      22.878      22.652      21.731      20.438      18.861    
  17.100      15.251      13.398      11.612      9.9434      8.4282      7.0855      5.9217      4.9330      4.1079    
  3.4302      2.8815      2.4429      2.0972      1.8296      1.6283      1.4844      1.3916      1.3461      1.3461    
  1.3916      1.4844      1.6283      1.8296      2.0972      2.4429      2.8815      3.4302      4.1079      4.9330    
  5.9217      7.0855      8.4282      9.9434      11.612      13.398      15.251      17.100      18.861      20.438    
  21.731      22.652      23.131      23.131      22.599      21.478      20.027      18.342      16.523      14.659    
  12.826      11.084      9.4758      8.0279      6.7538      5.6558      4.7276      3.9564      3.3258      2.8173    
  2.4132      2.0972      1.8556      1.6776      1.5556      1.4844      1.4609      1.4844      1.5556      1.6776    
  1.8556      2.0972      2.4132      2.8173      3.3258      3.9564      4.7276      5.6558      6.7538      8.0279    
  9.4758      11.084      12.826      14.659      16.523      18.342      20.027      21.478      22.599      23.309    
  23.552      23.309      22.424      21.143      19.576      17.826      15.985      14.136      12.344      10.659    
  9.1150      7.7328      6.5220      5.4825      4.6069      3.8820      3.2913      2.8173      2.4429      2.1527    
  1.9344      1.7783      1.6776      1.6283      1.6283      1.6776      1.7783      1.9344      2.1527      2.4429    
  2.8173      3.2913      3.8820      4.6069      5.4825      6.5220      7.7328      9.1150      10.659      12.344    
  14.136      15.985      17.826      19.576      21.143      22.424      23.331      23.801      23.801      23.331    
  22.046      20.688      19.080      17.316      15.495      13.690      11.957      10.337      8.8584      7.5384    
  6.3850      5.3971      4.5671      3.8820      3.3258      2.8815      2.5329      2.2660      2.0693      1.9344    
  1.8556      1.8296      1.8556      1.9344      2.0693      2.2660      2.5329      2.8815      3.3258      3.8820    
  4.5671      5.3971      6.3850      7.5384      8.8584      10.337      11.957      13.690      15.495      17.316    
  19.080      20.688      22.046      23.076      23.717      23.935      23.717      23.076      21.430      20.102    
  18.544      16.835      15.072      13.335      11.672      10.120      8.7047      7.4420      6.3396      5.3971    
  4.6069      3.9564      3.4302      3.0122      2.6870      2.4417      2.2660      2.1527      2.0972      2.0972    
  2.1527      2.2660      2.4417      2.6870      3.0122      3.4302      3.9564      4.6069      5.3971      6.3396    
  7.4420      8.7047      10.120      11.672      13.335      15.072      16.835      18.544      20.102      21.430    
  22.470      23.182      23.544      23.544      23.182      22.470      20.614      19.429      18.008      16.414    
  14.741      13.085      11.497      10.011      8.6535      7.4420      6.3850      5.4825      4.7276      4.1079    
  3.6086      3.2144      2.9111      2.6870      2.5329      2.4429      2.4132      2.4429      2.5329      2.6870    
  2.9111      3.2144      3.6086      4.1079      4.7276      5.4825      6.3850      7.4420      8.6535      10.011    
  11.497      13.085      14.741      16.414      18.008      19.429      20.614      21.533      22.179      22.560    
  22.685      22.560      22.179      21.533      19.712      18.764      17.541      16.096      14.529      12.956    
  11.438      10.011      8.7047      7.5384      6.5220      5.6558      4.9330      4.3416      3.8674      3.4960    
  3.2144      3.0122      2.8815      2.8173      2.8173      2.8815      3.0122      3.2144      3.4960      3.8674    
  4.3416      4.9330      5.6558      6.5220      7.5384      8.7047      10.011      11.438      12.956      14.529    
  16.096      17.541      18.764      19.712      20.382      20.810      21.049      21.153      21.153      21.049    
  20.810      20.382      18.887      18.226      17.220      15.924      14.456      12.956      11.497      10.120    
  8.8584      7.7328      6.7538      5.9217      5.2294      4.6653      4.2157      3.8674      3.6086      3.4302    
  3.3258      3.2913      3.3258      3.4302      3.6086      3.8674      4.2157      4.6653      5.2294      5.9217    
  6.7538      7.7328      8.8584      10.120      11.497      12.956      14.456      15.924      17.220      18.226    
  18.887      19.216      19.290      19.220      19.120      19.077      19.120      19.220      19.290      19.216    
  18.307      17.925      17.105      15.924      14.529      13.085      11.672      10.337      9.1150      8.0279    
  7.0855      6.2873      5.6257      5.0893      4.6653      4.3416      4.1079      3.9564      3.8820      3.8820    
  3.9564      4.1079      4.3416      4.6653      5.0893      5.6257      6.2873      7.0855      8.0279      9.1150    
  10.337      11.672      13.085      14.529      15.924      17.105      17.925      18.307      18.264      17.902    
  17.385      16.903      16.616      16.616      16.903      17.385      17.902      18.264      18.098      17.925    
  17.220      16.096      14.741      13.335      11.957      10.659      9.4758      8.4282      7.5241      6.7616    
  6.1325      5.6257      5.2294      4.9330      4.7276      4.6069      4.5671      4.6069      4.7276      4.9330    
  5.2294      5.6257      6.1325      6.7616      7.5241      8.4282      9.4758      10.659      11.957      13.335    
  14.741      16.096      17.220      17.925      18.098      17.729      16.928      15.900      14.901      14.182    
  13.920      14.182      14.901      15.900      16.928      17.729      18.307      18.226      17.541      16.414    
  15.072      13.690      12.344      11.084      9.9434      8.9399      8.0784      7.3552      6.7616      6.2873    
  5.9217      5.6558      5.4825      5.3971      5.3971      5.4825      5.6558      5.9217      6.2873      6.7616    
  7.3552      8.0784      8.9399      9.9434      11.084      12.344      13.690      15.072      16.414      17.541    
  18.226      18.307      17.729      16.578      15.069      13.507      12.226      11.506      11.506      12.226    
  13.507      15.069      16.578      17.729      18.887      18.764      18.008      16.835      15.495      14.136    
  12.826      11.612      10.522      9.5704      8.7576      8.0784      7.5241      7.0855      6.7538      6.5220    
  6.3850      6.3396      6.3850      6.5220      6.7538      7.0855      7.5241      8.0784      8.7576      9.5704    
  10.522      11.612      12.826      14.136      15.495      16.835      18.008      18.764      18.887      18.264    
  16.928      15.069      13.008      11.137      9.8332      9.3658      9.8332      11.137      13.008      15.069    
  16.928      18.264      19.712      19.429      18.544      17.316      15.985      14.659      13.398      12.244    
  11.218      10.328      9.5704      8.9399      8.4282      8.0279      7.7328      7.5384      7.4420      7.4420    
  7.5384      7.7328      8.0279      8.4282      8.9399      9.5704      10.328      11.218      12.244      13.398    
  14.659      15.985      17.316      18.544      19.429      19.712      19.216      17.902      15.900      13.507    
  11.137      9.2351      8.1766      8.1766      9.2351      11.137      13.507      15.900      17.902      19.216    
  20.614      20.102      19.080      17.826      16.523      15.251      14.062      12.987      12.038      11.218    
  10.522      9.9434      9.4758      9.1150      8.8584      8.7047      8.6535      8.7047      8.8584      9.1150    
  9.4758      9.9434      10.522      11.218      12.038      12.987      14.062      15.251      16.523      17.826    
  19.080      20.102      20.614      20.382      19.290      17.385      14.901      12.226      9.8332      8.1766    
  7.5845      8.1766      9.8332      12.226      14.901      17.385      19.290      20.382      21.430      20.688    
  19.576      18.342      17.100      15.914      14.822      13.845      12.987      12.244      11.612      11.084    
  10.659      10.337      10.120      10.011      10.011      10.120      10.337      10.659      11.084      11.612    
  12.244      12.987      13.845      14.822      15.914      17.100      18.342      19.576      20.688      21.430    
  21.533      20.810      19.220      16.903      14.182      11.506      9.3658      8.1766      8.1766      9.3658    
  11.506      14.182      16.903      19.220      20.810      21.533      22.046      21.143      20.027      18.861    
  17.721      16.654      15.685      14.822      14.062      13.398      12.826      12.344      11.957      11.672    
  11.497      11.438      11.497      11.672      11.957      12.344      12.826      13.398      14.062      14.822    
  15.685      16.654      17.721      18.861      20.027      21.143      22.046      22.470      22.179      21.049    
  19.120      16.616      13.920      11.506      9.8332      9.2351      9.8332      11.506      13.920      16.616    
  19.120      21.049      22.179      22.470      22.424      21.478      20.438      19.392      18.396      17.481    
  16.654      15.914      15.251      14.659      14.136      13.690      13.335      13.085      12.956      12.956    
  13.085      13.335      13.690      14.136      14.659      15.251      15.914      16.654      17.481      18.396    
  19.392      20.438      21.478      22.424      23.076      23.182      22.560      21.153      19.077      16.616    
  14.182      12.226      11.137      11.137      12.226      14.182      16.616      19.077      21.153      22.560    
  23.182      23.076      22.599      21.731      20.829      19.953      19.139      18.396      17.721      17.100    
  16.523      15.985      15.495      15.072      14.741      14.529      14.456      14.529      14.741      15.072    
  15.495      15.985      16.523      17.100      17.721      18.396      19.139      19.953      20.829      21.731    
  22.599      23.331      23.717      23.544      22.685      21.153      19.120      16.903      14.901      13.507    
  13.008      13.507      14.901      16.903      19.120      21.153      22.685      23.544      23.717      23.331    
  22.652      21.937      21.229      20.563      19.953      19.392      18.861      18.342      17.826      17.316    
  16.835      16.414      16.096      15.924      15.924      16.096      16.414      16.835      17.316      17.826    
  18.342      18.861      19.392      19.953      20.563      21.229      21.937      22.652      23.309      23.801    
  23.935      23.544      22.560      21.049      19.220      17.385      15.900      15.069      15.069      15.900    
  17.385      19.220      21.049      22.560      23.544      23.935      23.801      23.309      22.638      22.135    
  21.661      21.229      20.829      20.438      20.027      19.576      19.080      18.544      18.008      17.541    
  17.220      17.105      17.220      17.541      18.008      18.544      19.080      19.576      20.027      20.438    
  20.829      21.229      21.661      22.135      22.638      23.131      23.552      23.801      23.717      23.182    
  22.179      20.810      19.290      17.902      16.928      16.578      16.928      17.902      19.290      20.810    
  22.179      23.182      23.717      23.801      23.552      23.131      22.606      22.354      22.135      21.937    
  21.731      21.478      21.143      20.688      20.102      19.429      18.764      18.226      17.925      17.925    
  18.226      18.764      19.429      20.102      20.688      21.143      21.478      21.731      21.937      22.135    
  22.354      22.606      22.878      23.131      23.309      23.331      23.076      22.470      21.533      20.382    
  19.216      18.264      17.729      17.729      18.264      19.216      20.382      21.533      22.470      23.076    
  23.331      23.309      23.131      22.878      22.606      22.878      23.131      23.309      23.331      23.076    
  22.470      21.533      20.382      19.216      18.264      17.729      17.729      18.264      19.216      20.382    
  21.533      22.470      23.076      23.331      23.309      23.131      22.878      22.606      22.354      22.135    
  21.937      21.731      21.478      21.143      20.688      20.102      19.429      18.764      18.226      17.925    
  17.925      18.226      18.764      19.429      20.102      20.688      21.143      21.478      21.731      21.937    
  22.135      22.354      22.878      23.377      23.802      24.048      23.948      23.384      22.339      20.921    
  19.350      17.918      16.915      16.554      16.915      17.918      19.350      20.921      22.339      23.384    
  23.948      24.048      23.802      23.377      22.878      22.369      21.889      21.452      21.048      20.652    
  20.235      19.777      19.270      18.721      18.170      17.689      17.359      17.241      17.359      17.689    
  18.170      18.721      19.270      19.777      20.235      20.652      21.048      21.452      21.889      22.369    
  23.131      23.802      24.293      24.398      23.945      22.868      21.241      19.285      17.331      15.753    
  14.871      14.871      15.753      17.331      19.285      21.241      22.868      23.945      24.398      24.293    
  23.802      23.131      22.400      21.675      20.994      20.370      19.796      19.252      18.719      18.186    
  17.659      17.159      16.719      16.385      16.204      16.204      16.385      16.718      17.159      17.659    
  18.186      18.719      19.252      19.796      20.370      20.994      21.675      22.400      23.309      24.048    