   8   8   1   0
  0.3200611E+02  0.5174714E-09  0.5173615E-09  0.1104441E-08  0.5000000E-15
  1.000000000000000E-004
  CAR 
 BC3                                     
      7.58885927    -20.52726064  301     -2.84859671      1.00000000
    -20.527  0.0000E+00  0.0000E+00
    -20.434  0.0000E+00  0.0000E+00
    -20.340  0.0000E+00  0.0000E+00
    -20.246  0.0000E+00  0.0000E+00
    -20.152  0.0000E+00  0.0000E+00
    -20.059  0.0000E+00  0.0000E+00
    -19.965  0.0000E+00  0.0000E+00
    -19.871  0.0000E+00  0.0000E+00
    -19.777  0.4440E-13  0.4161E-14
    -19.684  0.4797E-09  0.4496E-10
    -19.590  0.9483E-06  0.8892E-07
    -19.496  0.3526E-03  0.3313E-04
    -19.403  0.2587E-01  0.2458E-02
    -19.309  0.4065E+00  0.4055E-01
    -19.215  0.1585E+01  0.1891E+00
    -19.121  0.2186E+01  0.3939E+00
    -19.028  0.2291E+01  0.6086E+00
    -18.934  0.2480E+01  0.8411E+00
    -18.840  0.3041E+01  0.1126E+01
    -18.747  0.3680E+01  0.1471E+01
    -18.653  0.3536E+01  0.1802E+01
    -18.559  0.1784E+01  0.1970E+01
    -18.465  0.3099E+00  0.1999E+01
    -18.372  0.1490E-01  0.2000E+01
    -18.278  0.1700E-03  0.2000E+01
    -18.184  0.4072E-06  0.2000E+01
    -18.091  0.1894E-09  0.2000E+01
    -17.997  0.1635E-13  0.2000E+01
    -17.903  0.0000E+00  0.2000E+01
    -17.809  0.0000E+00  0.2000E+01
    -17.716  0.0000E+00  0.2000E+01
    -17.622  0.0000E+00  0.2000E+01
    -17.528  0.2902E-14  0.2000E+01
    -17.434  0.4550E-10  0.2000E+01
    -17.341  0.1307E-06  0.2000E+01
    -17.247  0.7076E-04  0.2000E+01
    -17.153  0.7543E-02  0.2001E+01
    -17.060  0.1715E+00  0.2017E+01
    -16.966  0.9701E+00  0.2108E+01
    -16.872  0.1891E+01  0.2285E+01
    -16.778  0.2126E+01  0.2484E+01
    -16.685  0.2180E+01  0.2688E+01
    -16.591  0.2339E+01  0.2908E+01
    -16.497  0.1811E+01  0.3077E+01
    -16.404  0.1129E+01  0.3183E+01
    -16.310  0.1348E+01  0.3310E+01
    -16.216  0.1726E+01  0.3471E+01
    -16.122  0.2027E+01  0.3661E+01
    -16.029  0.2229E+01  0.3870E+01
    -15.935  0.2024E+01  0.4060E+01
    -15.841  0.3100E+01  0.4350E+01
    -15.748  0.4408E+01  0.4764E+01
    -15.654  0.3551E+01  0.5096E+01
    -15.560  0.2545E+01  0.5335E+01
    -15.466  0.2359E+01  0.5556E+01
    -15.373  0.2660E+01  0.5805E+01
    -15.279  0.1720E+01  0.5966E+01
    -15.185  0.3418E+00  0.5998E+01
    -15.091  0.1620E-01  0.6000E+01
    -14.998  0.1610E-03  0.6000E+01
    -14.904  0.3120E-06  0.6000E+01
    -14.810  0.1129E-09  0.6000E+01
    -14.717  0.7424E-14  0.6000E+01
    -14.623  0.0000E+00  0.6000E+01
    -14.529  0.0000E+00  0.6000E+01
    -14.435  0.0000E+00  0.6000E+01
    -14.342  0.0000E+00  0.6000E+01
    -14.248  0.0000E+00  0.6000E+01
    -14.154  0.0000E+00  0.6000E+01
    -14.061  0.3227E-12  0.6000E+01
    -13.967  0.2411E-08  0.6000E+01
    -13.873  0.3330E-05  0.6000E+01
    -13.779  0.8813E-03  0.6000E+01
    -13.686  0.4748E-01  0.6005E+01
    -13.592  0.5782E+00  0.6059E+01
    -13.498  0.1925E+01  0.6239E+01
    -13.405  0.2492E+01  0.6473E+01
    -13.311  0.2169E+01  0.6676E+01
    -13.217  0.2325E+01  0.6894E+01
    -13.123  0.3326E+01  0.7206E+01
    -13.030  0.4129E+01  0.7593E+01
    -12.936  0.3506E+01  0.7921E+01
    -12.842  0.2094E+01  0.8117E+01
    -12.748  0.1420E+01  0.8250E+01
    -12.655  0.1073E+01  0.8351E+01
    -12.561  0.8488E+00  0.8431E+01
    -12.467  0.1147E+01  0.8538E+01
    -12.374  0.1264E+01  0.8657E+01
    -12.280  0.9532E+00  0.8746E+01
    -12.186  0.9728E+00  0.8837E+01
    -12.092  0.1256E+01  0.8955E+01
    -11.999  0.1691E+01  0.9113E+01
    -11.905  0.2258E+01  0.9325E+01
    -11.811  0.2595E+01  0.9568E+01
    -11.718  0.2110E+01  0.9766E+01
    -11.624  0.1469E+01  0.9904E+01
    -11.530  0.1071E+01  0.1000E+02
    -11.436  0.1075E+01  0.1010E+02
    -11.343  0.1247E+01  0.1022E+02
    -11.249  0.1336E+01  0.1035E+02
    -11.155  0.9306E+00  0.1043E+02
    -11.062  0.6402E+00  0.1049E+02
    -10.968  0.6822E+00  0.1056E+02
    -10.874  0.6008E+00  0.1061E+02
    -10.780  0.5566E+00  0.1067E+02
    -10.687  0.6649E+00  0.1073E+02
    -10.593  0.1159E+01  0.1084E+02
    -10.499  0.1311E+01  0.1096E+02
    -10.405  0.1089E+01  0.1106E+02
    -10.312  0.1040E+01  0.1116E+02
    -10.218  0.1252E+01  0.1128E+02
    -10.124  0.1257E+01  0.1139E+02
    -10.031  0.1277E+01  0.1151E+02
     -9.937  0.1510E+01  0.1166E+02
     -9.843  0.1518E+01  0.1180E+02
     -9.749  0.1502E+01  0.1194E+02
     -9.656  0.1830E+01  0.1211E+02
     -9.562  0.2141E+01  0.1231E+02
     -9.468  0.1583E+01  0.1246E+02
     -9.375  0.1546E+01  0.1260E+02
     -9.281  0.1877E+01  0.1278E+02
     -9.187  0.2418E+01  0.1301E+02
     -9.093  0.2659E+01  0.1326E+02
     -9.000  0.2209E+01  0.1346E+02
     -8.906  0.1929E+01  0.1364E+02
     -8.812  0.1911E+01  0.1382E+02
     -8.718  0.2087E+01  0.1402E+02
     -8.625  0.2209E+01  0.1423E+02
     -8.531  0.2368E+01  0.1445E+02
     -8.437  0.2569E+01  0.1469E+02
     -8.344  0.2617E+01  0.1493E+02
     -8.250  0.2532E+01  0.1517E+02
     -8.156  0.1782E+01  0.1534E+02
     -8.062  0.2107E+01  0.1554E+02
     -7.969  0.3156E+01  0.1583E+02
     -7.875  0.3408E+01  0.1615E+02
     -7.781  0.2969E+01  0.1643E+02
     -7.688  0.2118E+01  0.1663E+02
     -7.594  0.1590E+01  0.1678E+02
     -7.500  0.1916E+01  0.1696E+02
     -7.406  0.2657E+01  0.1720E+02
     -7.313  0.3138E+01  0.1750E+02
     -7.219  0.3689E+01  0.1784E+02
     -7.125  0.4029E+01  0.1822E+02
     -7.032  0.3981E+01  0.1860E+02
     -6.938  0.3516E+01  0.1892E+02
     -6.844  0.2228E+01  0.1913E+02
     -6.750  0.1124E+01  0.1924E+02
     -6.657  0.1017E+01  0.1933E+02
     -6.563  0.1371E+01  0.1946E+02
     -6.469  0.1825E+01  0.1963E+02
     -6.375  0.1685E+01  0.1979E+02
     -6.282  0.1222E+01  0.1991E+02
     -6.188  0.1227E+01  0.2002E+02
     -6.094  0.1480E+01  0.2016E+02
     -6.001  0.2155E+01  0.2036E+02
     -5.907  0.3373E+01  0.2068E+02
     -5.813  0.5081E+01  0.2115E+02
     -5.719  0.7356E+01  0.2184E+02
     -5.626  0.7229E+01  0.2252E+02
     -5.532  0.4809E+01  0.2297E+02
     -5.438  0.3672E+01  0.2332E+02
     -5.345  0.2941E+01  0.2359E+02
     -5.251  0.2441E+01  0.2382E+02
     -5.157  0.2021E+01  0.2401E+02
     -5.063  0.2041E+01  0.2420E+02
     -4.970  0.2328E+01  0.2442E+02
     -4.876  0.2157E+01  0.2462E+02
     -4.782  0.2027E+01  0.2481E+02
     -4.689  0.2323E+01  0.2503E+02
     -4.595  0.2736E+01  0.2529E+02
     -4.501  0.2695E+01  0.2554E+02
     -4.407  0.2876E+01  0.2581E+02
     -4.314  0.3656E+01  0.2615E+02
     -4.220  0.4572E+01  0.2658E+02
     -4.126  0.5991E+01  0.2714E+02
     -4.032  0.6450E+01  0.2774E+02
     -3.939  0.5517E+01  0.2826E+02
     -3.845  0.4746E+01  0.2871E+02
     -3.751  0.2862E+01  0.2897E+02
     -3.658  0.1609E+01  0.2913E+02
     -3.564  0.1370E+01  0.2925E+02
     -3.470  0.1163E+01  0.2936E+02
     -3.376  0.1226E+01  0.2948E+02
     -3.283  0.1629E+01  0.2963E+02
     -3.189  0.2172E+01  0.2983E+02
     -3.095  0.1462E+01  0.2997E+02
     -3.002  0.2933E+00  0.3000E+02
     -2.908  0.1392E-01  0.3000E+02
     -2.814  0.1684E-03  0.3000E+02
     -2.720  0.4198E-02  0.3000E+02
     -2.627  0.1231E+00  0.3001E+02
     -2.533  0.8614E+00  0.3009E+02
     -2.439  0.1832E+01  0.3026E+02
     -2.346  0.1926E+01  0.3044E+02
     -2.252  0.1622E+01  0.3060E+02
     -2.158  0.1534E+01  0.3074E+02
     -2.064  0.2251E+01  0.3095E+02
     -1.971  0.2587E+01  0.3119E+02
     -1.877  0.1818E+01  0.3136E+02
     -1.783  0.1365E+01  0.3149E+02
     -1.689  0.1102E+01  0.3160E+02
     -1.596  0.1031E+01  0.3169E+02
     -1.502  0.1131E+01  0.3180E+02
     -1.408  0.1032E+01  0.3189E+02
     -1.315  0.7785E+00  0.3197E+02
     -1.221  0.3070E+00  0.3200E+02
     -1.127  0.3473E-01  0.3200E+02
     -1.033  0.8831E-03  0.3200E+02
     -0.940  0.4535E-05  0.3200E+02
     -0.846  0.4437E-08  0.3200E+02
     -0.752  0.8000E-12  0.3200E+02
     -0.659  0.0000E+00  0.3200E+02
     -0.565  0.3090E-14  0.3200E+02
     -0.471  0.4155E-10  0.3200E+02
     -0.377  0.1022E-06  0.3200E+02
     -0.284  0.4727E-04  0.3200E+02
     -0.190  0.4297E-02  0.3200E+02
     -0.096  0.8314E-01  0.3201E+02
     -0.002  0.3924E+00  0.3204E+02
      0.091  0.5945E+00  0.3210E+02
      0.185  0.5700E+00  0.3215E+02
      0.279  0.8062E+00  0.3223E+02
      0.372  0.1751E+01  0.3239E+02
      0.466  0.3355E+01  0.3271E+02
      0.560  0.3642E+01  0.3305E+02
      0.654  0.2539E+01  0.3329E+02
      0.747  0.1745E+01  0.3345E+02
      0.841  0.1484E+01  0.3359E+02
      0.935  0.1379E+01  0.3372E+02
      1.028  0.1838E+01  0.3389E+02
      1.122  0.2495E+01  0.3413E+02
      1.216  0.2420E+01  0.3435E+02
      1.310  0.2439E+01  0.3458E+02
      1.403  0.2713E+01  0.3484E+02
      1.497  0.2532E+01  0.3507E+02
      1.591  0.1935E+01  0.3525E+02
      1.684  0.1702E+01  0.3541E+02
      1.778  0.2083E+01  0.3561E+02
      1.872  0.2255E+01  0.3582E+02
      1.966  0.2270E+01  0.3603E+02
      2.059  0.2514E+01  0.3627E+02
      2.153  0.3011E+01  0.3655E+02
      2.247  0.3651E+01  0.3689E+02
      2.341  0.3344E+01  0.3721E+02
      2.434  0.2423E+01  0.3743E+02
      2.528  0.1765E+01  0.3760E+02
      2.622  0.1545E+01  0.3774E+02
      2.715  0.1553E+01  0.3789E+02
      2.809  0.1745E+01  0.3805E+02
      2.903  0.2577E+01  0.3829E+02
      2.997  0.2792E+01  0.3856E+02
      3.090  0.2499E+01  0.3879E+02
      3.184  0.2357E+01  0.3901E+02
      3.278  0.2622E+01  0.3926E+02
      3.371  0.3082E+01  0.3955E+02
      3.465  0.2950E+01  0.3982E+02
      3.559  0.2608E+01  0.4007E+02
      3.653  0.2865E+01  0.4033E+02
      3.746  0.3770E+01  0.4069E+02
      3.840  0.3451E+01  0.4101E+02
      3.934  0.3307E+01  0.4132E+02
      4.027  0.3401E+01  0.4164E+02
      4.121  0.3395E+01  0.4196E+02
      4.215  0.3216E+01  0.4226E+02
      4.309  0.2872E+01  0.4253E+02
      4.402  0.2737E+01  0.4279E+02
      4.496  0.3431E+01  0.4311E+02
      4.590  0.4312E+01  0.4351E+02
      4.684  0.4013E+01  0.4389E+02
      4.777  0.3609E+01  0.4423E+02
      4.871  0.3215E+01  0.4453E+02
      4.965  0.2471E+01  0.4476E+02
      5.058  0.1767E+01  0.4492E+02
      5.152  0.1602E+01  0.4507E+02
      5.246  0.1969E+01  0.4526E+02
      5.340  0.2387E+01  0.4548E+02
      5.433  0.2176E+01  0.4569E+02
      5.527  0.2378E+01  0.4591E+02
      5.621  0.3153E+01  0.4620E+02
      5.714  0.3543E+01  0.4654E+02
      5.808  0.3479E+01  0.4686E+02
      5.902  0.3576E+01  0.4720E+02
      5.996  0.3385E+01  0.4752E+02
      6.089  0.2597E+01  0.4776E+02
      6.183  0.1535E+01  0.4790E+02
      6.277  0.6962E+00  0.4797E+02
      6.370  0.2831E+00  0.4799E+02
      6.464  0.6038E-01  0.4800E+02
      6.558  0.3677E-02  0.4800E+02
      6.652  0.5058E-04  0.4800E+02
      6.745  0.1411E-06  0.4800E+02
      6.839  0.7498E-10  0.4800E+02
      6.933  0.7305E-14  0.4800E+02
      7.027  0.0000E+00  0.4800E+02
      7.120  0.0000E+00  0.4800E+02
      7.214  0.0000E+00  0.4800E+02
      7.308  0.0000E+00  0.4800E+02
      7.401  0.0000E+00  0.4800E+02
      7.495  0.0000E+00  0.4800E+02
      7.589  0.0000E+00  0.4800E+02
      7.58885927    -20.52726064  301     -2.84859671      1.00000000
    -20.527  0.0000E+00  0.0000E+00  0.0000E+00  0.0000E+00  0.0000E+00  0.0000E+00  0.0000E+00  0.0000E+00  0.0000E+00
    -20.434  0.0000E+00  0.0000E+00  0.0000E+00  0.0000E+00  0.0000E+00  0.0000E+00  0.0000E+00  0.0000E+00  0.0000E+00
    -20.340  0.0000E+00  0.0000E+00  0.0000E+00  0.0000E+00  0.0000E+00  0.0000E+00  0.0000E+00  0.0000E+00  0.0000E+00
    -20.246  0.0000E+00  0.0000E+00  0.0000E+00  0.0000E+00  0.0000E+00  0.0000E+00  0.0000E+00  0.0000E+00  0.0000E+00
    -20.152  0.0000E+00  0.0000E+00  0.0000E+00  0.0000E+00  0.0000E+00  0.0000E+00  0.0000E+00  0.0000E+00  0.0000E+00
    -20.059  0.0000E+00  0.0000E+00  0.0000E+00  0.0000E+00  0.0000E+00  0.0000E+00  0.0000E+00  0.0000E+00  0.0000E+00
    -19.965  0.0000E+00  0.0000E+00  0.0000E+00  0.0000E+00  0.0000E+00  0.0000E+00  0.0000E+00  0.0000E+00  0.0000E+00
    -19.871  0.0000E+00  0.0000E+00  0.0000E+00  0.0000E+00  0.0000E+00  0.0000E+00  0.0000E+00  0.0000E+00  0.0000E+00
    -19.777  0.1232E-14  0.9523E-18  0.8325E-26  0.1023E-17  0.0000E+00  0.0000E+00  0.0000E+00  0.0000E+00  0.0000E+00
    -19.684  0.1330E-10  0.1246E-13  0.8861E-22  0.1337E-13  0.0000E+00  0.0000E+00  0.0000E+00  0.0000E+00  0.0000E+00
    -19.590  0.2625E-07  0.3095E-10  0.1728E-18  0.3322E-10  0.0000E+00  0.0000E+00  0.0000E+00  0.0000E+00  0.0000E+00
    -19.496  0.9744E-05  0.1520E-07  0.6358E-16  0.1632E-07  0.0000E+00  0.0000E+00  0.0000E+00  0.0000E+00  0.0000E+00
    -19.403  0.7125E-03  0.1583E-05  0.4628E-14  0.1702E-05  0.0000E+00  0.0000E+00  0.0000E+00  0.0000E+00  0.0000E+00
    -19.309  0.1112E-01  0.3946E-04  0.7202E-13  0.4258E-04  0.0000E+00  0.0000E+00  0.0000E+00  0.0000E+00  0.0000E+00
    -19.215  0.4263E-01  0.2936E-03  0.2723E-12  0.3266E-03  0.0000E+00  0.0000E+00  0.0000E+00  0.0000E+00  0.0000E+00
    -19.121  0.5549E-01  0.9816E-03  0.3482E-12  0.1206E-02  0.0000E+00  0.0000E+00  0.0000E+00  0.0000E+00  0.0000E+00
    -19.028  0.5116E-01  0.2184E-02  0.3560E-12  0.2843E-02  0.0000E+00  0.0000E+00  0.0000E+00  0.0000E+00  0.0000E+00
    -18.934  0.4697E-01  0.3844E-02  0.3865E-12  0.4713E-02  0.0000E+00  0.0000E+00  0.0000E+00  0.0000E+00  0.0000E+00
    -18.840  0.4493E-01  0.7074E-02  0.4470E-12  0.7833E-02  0.0000E+00  0.0000E+00  0.0000E+00  0.0000E+00  0.0000E+00
    -18.747  0.3982E-01  0.1215E-01  0.5158E-12  0.1067E-01  0.0000E+00  0.0000E+00  0.0000E+00  0.0000E+00  0.0000E+00
    -18.653  0.2538E-01  0.1549E-01  0.3628E-12  0.1050E-01  0.0000E+00  0.0000E+00  0.0000E+00  0.0000E+00  0.0000E+00
    -18.559  0.9129E-02  0.9307E-02  0.1432E-12  0.4926E-02  0.0000E+00  0.0000E+00  0.0000E+00  0.0000E+00  0.0000E+00
    -18.465  0.1231E-02  0.1821E-02  0.2348E-13  0.7560E-03  0.0000E+00  0.0000E+00  0.0000E+00  0.0000E+00  0.0000E+00
    -18.372  0.4854E-04  0.9449E-04  0.1137E-14  0.3250E-04  0.0000E+00  0.0000E+00  0.0000E+00  0.0000E+00  0.0000E+00
    -18.278  0.4812E-06  0.1123E-05  0.1316E-16  0.3465E-06  0.0000E+00  0.0000E+00  0.0000E+00  0.0000E+00  0.0000E+00
    -18.184  0.1056E-08  0.2742E-08  0.3180E-19  0.8055E-09  0.0000E+00  0.0000E+00  0.0000E+00  0.0000E+00  0.0000E+00
    -18.091  0.4664E-12  0.1287E-11  0.1478E-22  0.3705E-12  0.0000E+00  0.0000E+00  0.0000E+00  0.0000E+00  0.0000E+00
    -17.997  0.3888E-16  0.1117E-15  0.1261E-26  0.3171E-16  0.0000E+00  0.0000E+00  0.0000E+00  0.0000E+00  0.0000E+00
    -17.903  0.0000E+00  0.0000E+00  0.0000E+00  0.0000E+00  0.0000E+00  0.0000E+00  0.0000E+00  0.0000E+00  0.0000E+00
    -17.809  0.0000E+00  0.0000E+00  0.0000E+00  0.0000E+00  0.0000E+00  0.0000E+00  0.0000E+00  0.0000E+00  0.0000E+00
    -17.716  0.0000E+00  0.0000E+00  0.0000E+00  0.0000E+00  0.0000E+00  0.0000E+00  0.0000E+00  0.0000E+00  0.0000E+00
    -17.622  0.0000E+00  0.0000E+00  0.0000E+00  0.0000E+00  0.0000E+00  0.0000E+00  0.0000E+00  0.0000E+00  0.0000E+00
    -17.528  0.1459E-15  0.3717E-17  0.8228E-27  0.8572E-17  0.0000E+00  0.0000E+00  0.0000E+00  0.0000E+00  0.0000E+00
    -17.434  0.2285E-11  0.6147E-13  0.1218E-22  0.1319E-12  0.0000E+00  0.0000E+00  0.0000E+00  0.0000E+00  0.0000E+00
    -17.341  0.6557E-08  0.1899E-09  0.3245E-19  0.3685E-09  0.0000E+00  0.0000E+00  0.0000E+00  0.0000E+00  0.0000E+00
    -17.247  0.3543E-05  0.1119E-06  0.1596E-16  0.1925E-06  0.0000E+00  0.0000E+00  0.0000E+00  0.0000E+00  0.0000E+00
    -17.153  0.3766E-03  0.1318E-04  0.1507E-14  0.1964E-04  0.0000E+00  0.0000E+00  0.0000E+00  0.0000E+00  0.0000E+00
    -17.060  0.8513E-02  0.3381E-03  0.2950E-13  0.4243E-03  0.0000E+00  0.0000E+00  0.0000E+00  0.0000E+00  0.0000E+00
    -16.966  0.4751E-01  0.2265E-02  0.1401E-12  0.2279E-02  0.0000E+00  0.0000E+00  0.0000E+00  0.0000E+00  0.0000E+00
    -16.872  0.8950E-01  0.5635E-02  0.2273E-12  0.4379E-02  0.0000E+00  0.0000E+00  0.0000E+00  0.0000E+00  0.0000E+00
    -16.778  0.9447E-01  0.7532E-02  0.2154E-12  0.5791E-02  0.0000E+00  0.0000E+00  0.0000E+00  0.0000E+00  0.0000E+00
    -16.685  0.8858E-01  0.6863E-02  0.1891E-12  0.8922E-02  0.0000E+00  0.0000E+00  0.0000E+00  0.0000E+00  0.0000E+00
    -16.591  0.8785E-01  0.5976E-02  0.1892E-12  0.1247E-01  0.0000E+00  0.0000E+00  0.0000E+00  0.0000E+00  0.0000E+00
    -16.497  0.6421E-01  0.5161E-02  0.1429E-12  0.9951E-02  0.0000E+00  0.0000E+00  0.0000E+00  0.0000E+00  0.0000E+00
    -16.404  0.3618E-01  0.4832E-02  0.1128E-12  0.6035E-02  0.0000E+00  0.0000E+00  0.0000E+00  0.0000E+00  0.0000E+00
    -16.310  0.3753E-01  0.6851E-02  0.1139E-12  0.9549E-02  0.0000E+00  0.0000E+00  0.0000E+00  0.0000E+00  0.0000E+00
    -16.216  0.4351E-01  0.9189E-02  0.9212E-13  0.1383E-01  0.0000E+00  0.0000E+00  0.0000E+00  0.0000E+00  0.0000E+00
    -16.122  0.4467E-01  0.1107E-01  0.6761E-13  0.1740E-01  0.0000E+00  0.0000E+00  0.0000E+00  0.0000E+00  0.0000E+00
    -16.029  0.4273E-01  0.1233E-01  0.6438E-13  0.2141E-01  0.0000E+00  0.0000E+00  0.0000E+00  0.0000E+00  0.0000E+00
    -15.935  0.2811E-01  0.1458E-01  0.6435E-13  0.2107E-01  0.0000E+00  0.0000E+00  0.0000E+00  0.0000E+00  0.0000E+00
    -15.841  0.2066E-01  0.3318E-01  0.9278E-13  0.3111E-01  0.0000E+00  0.0000E+00  0.0000E+00  0.0000E+00  0.0000E+00
    -15.748  0.1795E-01  0.5188E-01  0.1258E-12  0.4267E-01  0.0000E+00  0.0000E+00  0.0000E+00  0.0000E+00  0.0000E+00
    -15.654  0.1222E-01  0.4160E-01  0.1240E-12  0.3122E-01  0.0000E+00  0.0000E+00  0.0000E+00  0.0000E+00  0.0000E+00
    -15.560  0.7042E-02  0.2826E-01  0.6633E-13  0.1916E-01  0.0000E+00  0.0000E+00  0.0000E+00  0.0000E+00  0.0000E+00
    -15.466  0.4084E-02  0.2193E-01  0.2311E-13  0.1709E-01  0.0000E+00  0.0000E+00  0.0000E+00  0.0000E+00  0.0000E+00
    -15.373  0.2093E-02  0.2076E-01  0.1331E-13  0.1881E-01  0.0000E+00  0.0000E+00  0.0000E+00  0.0000E+00  0.0000E+00
    -15.279  0.6150E-03  0.1254E-01  0.6132E-14  0.1192E-01  0.0000E+00  0.0000E+00  0.0000E+00  0.0000E+00  0.0000E+00
    -15.185  0.6702E-04  0.2432E-02  0.1035E-14  0.2347E-02  0.0000E+00  0.0000E+00  0.0000E+00  0.0000E+00  0.0000E+00
    -15.091  0.2028E-05  0.1140E-03  0.4459E-16  0.1107E-03  0.0000E+00  0.0000E+00  0.0000E+00  0.0000E+00  0.0000E+00
    -14.998  0.1426E-07  0.1127E-05  0.4160E-18  0.1098E-05  0.0000E+00  0.0000E+00  0.0000E+00  0.0000E+00  0.0000E+00
    -14.904  0.2093E-10  0.2176E-08  0.7714E-21  0.2124E-08  0.0000E+00  0.0000E+00  0.0000E+00  0.0000E+00  0.0000E+00
    -14.810  0.6018E-14  0.7857E-12  0.2708E-24  0.7675E-12  0.0000E+00  0.0000E+00  0.0000E+00  0.0000E+00  0.0000E+00
    -14.717  0.3137E-18  0.5153E-16  0.1754E-28  0.5049E-16  0.0000E+00  0.0000E+00  0.0000E+00  0.0000E+00  0.0000E+00
    -14.623  0.0000E+00  0.0000E+00  0.0000E+00  0.0000E+00  0.0000E+00  0.0000E+00  0.0000E+00  0.0000E+00  0.0000E+00
    -14.529  0.0000E+00  0.0000E+00  0.0000E+00  0.0000E+00  0.0000E+00  0.0000E+00  0.0000E+00  0.0000E+00  0.0000E+00
    -14.435  0.0000E+00  0.0000E+00  0.0000E+00  0.0000E+00  0.0000E+00  0.0000E+00  0.0000E+00  0.0000E+00  0.0000E+00
    -14.342  0.0000E+00  0.0000E+00  0.0000E+00  0.0000E+00  0.0000E+00  0.0000E+00  0.0000E+00  0.0000E+00  0.0000E+00
    -14.248  0.0000E+00  0.0000E+00  0.0000E+00  0.0000E+00  0.0000E+00  0.0000E+00  0.0000E+00  0.0000E+00  0.0000E+00
    -14.154  0.0000E+00  0.0000E+00  0.0000E+00  0.0000E+00  0.0000E+00  0.0000E+00  0.0000E+00  0.0000E+00  0.0000E+00
    -14.061  0.2938E-13  0.1076E-15  0.5722E-26  0.2771E-15  0.0000E+00  0.0000E+00  0.0000E+00  0.0000E+00  0.0000E+00
    -13.967  0.2193E-09  0.8768E-12  0.4071E-22  0.2127E-11  0.0000E+00  0.0000E+00  0.0000E+00  0.0000E+00  0.0000E+00
    -13.873  0.3025E-06  0.1374E-08  0.5328E-19  0.3048E-08  0.0000E+00  0.0000E+00  0.0000E+00  0.0000E+00  0.0000E+00
    -13.779  0.7985E-04  0.4341E-06  0.1329E-16  0.8529E-06  0.0000E+00  0.0000E+00  0.0000E+00  0.0000E+00  0.0000E+00
    -13.686  0.4283E-02  0.2969E-04  0.6703E-15  0.5069E-04  0.0000E+00  0.0000E+00  0.0000E+00  0.0000E+00  0.0000E+00
    -13.592  0.5168E-01  0.4930E-03  0.7589E-14  0.7590E-03  0.0000E+00  0.0000E+00  0.0000E+00  0.0000E+00  0.0000E+00
    -13.498  0.1683E+00  0.2415E-02  0.2450E-13  0.3862E-02  0.0000E+00  0.0000E+00  0.0000E+00  0.0000E+00  0.0000E+00
    -13.405  0.2074E+00  0.4812E-02  0.4084E-13  0.9186E-02  0.0000E+00  0.0000E+00  0.0000E+00  0.0000E+00  0.0000E+00
    -13.311  0.1639E+00  0.6739E-02  0.4545E-13  0.1428E-01  0.0000E+00  0.0000E+00  0.0000E+00  0.0000E+00  0.0000E+00
    -13.217  0.1502E+00  0.1329E-01  0.2854E-13  0.2201E-01  0.0000E+00  0.0000E+00  0.0000E+00  0.0000E+00  0.0000E+00
    -13.123  0.1788E+00  0.3284E-01  0.2240E-13  0.3534E-01  0.0000E+00  0.0000E+00  0.0000E+00  0.0000E+00  0.0000E+00
    -13.030  0.1589E+00  0.6052E-01  0.1907E-13  0.5977E-01  0.0000E+00  0.0000E+00  0.0000E+00  0.0000E+00  0.0000E+00
    -12.936  0.9293E-01  0.6197E-01  0.1317E-13  0.6380E-01  0.0000E+00  0.0000E+00  0.0000E+00  0.0000E+00  0.0000E+00
    -12.842  0.5915E-01  0.3318E-01  0.9865E-14  0.3656E-01  0.0000E+00  0.0000E+00  0.0000E+00  0.0000E+00  0.0000E+00
    -12.748  0.4635E-01  0.1838E-01  0.6716E-14  0.2258E-01  0.0000E+00  0.0000E+00  0.0000E+00  0.0000E+00  0.0000E+00
    -12.655  0.3091E-01  0.1453E-01  0.5012E-14  0.1803E-01  0.0000E+00  0.0000E+00  0.0000E+00  0.0000E+00  0.0000E+00
    -12.561  0.1208E-01  0.1623E-01  0.2567E-14  0.1741E-01  0.0000E+00  0.0000E+00  0.0000E+00  0.0000E+00  0.0000E+00
    -12.467  0.1124E-01  0.2730E-01  0.2432E-14  0.2128E-01  0.0000E+00  0.0000E+00  0.0000E+00  0.0000E+00  0.0000E+00
    -12.374  0.1147E-01  0.3197E-01  0.2884E-14  0.2097E-01  0.0000E+00  0.0000E+00  0.0000E+00  0.0000E+00  0.0000E+00
    -12.280  0.9560E-02  0.2104E-01  0.1758E-14  0.1742E-01  0.0000E+00  0.0000E+00  0.0000E+00  0.0000E+00  0.0000E+00
    -12.186  0.1494E-01  0.1593E-01  0.1912E-14  0.1979E-01  0.0000E+00  0.0000E+00  0.0000E+00  0.0000E+00  0.0000E+00
    -12.092  0.2575E-01  0.1691E-01  0.9188E-14  0.2484E-01  0.0000E+00  0.0000E+00  0.0000E+00  0.0000E+00  0.0000E+00
    -11.999  0.5403E-01  0.1962E-01  0.2391E-13  0.2834E-01  0.0000E+00  0.0000E+00  0.0000E+00  0.0000E+00  0.0000E+00
    -11.905  0.1154E+00  0.2206E-01  0.2346E-13  0.2677E-01  0.0000E+00  0.0000E+00  0.0000E+00  0.0000E+00  0.0000E+00
    -11.811  0.1293E+00  0.2782E-01  0.1472E-13  0.2784E-01  0.0000E+00  0.0000E+00  0.0000E+00  0.0000E+00  0.0000E+00
    -11.718  0.9443E-01  0.2220E-01  0.1024E-13  0.2412E-01  0.0000E+00  0.0000E+00  0.0000E+00  0.0000E+00  0.0000E+00
    -11.624  0.6762E-01  0.1394E-01  0.6113E-14  0.1705E-01  0.0000E+00  0.0000E+00  0.0000E+00  0.0000E+00  0.0000E+00
    -11.530  0.4914E-01  0.1148E-01  0.4528E-14  0.1184E-01  0.0000E+00  0.0000E+00  0.0000E+00  0.0000E+00  0.0000E+00
    -11.436  0.4183E-01  0.1227E-01  0.5150E-14  0.1293E-01  0.0000E+00  0.0000E+00  0.0000E+00  0.0000E+00  0.0000E+00
    -11.343  0.3800E-01  0.1468E-01  0.5481E-14  0.1646E-01  0.0000E+00  0.0000E+00  0.0000E+00  0.0000E+00  0.0000E+00
    -11.249  0.3487E-01  0.1845E-01  0.5147E-14  0.1584E-01  0.0000E+00  0.0000E+00  0.0000E+00  0.0000E+00  0.0000E+00
    -11.155  0.3559E-01  0.1325E-01  0.4386E-14  0.8180E-02  0.0000E+00  0.0000E+00  0.0000E+00  0.0000E+00  0.0000E+00
    -11.062  0.5176E-01  0.4715E-02  0.2920E-14  0.4463E-02  0.0000E+00  0.0000E+00  0.0000E+00  0.0000E+00  0.0000E+00
    -10.968  0.6454E-01  0.3270E-02  0.3203E-14  0.4880E-02  0.0000E+00  0.0000E+00  0.0000E+00  0.0000E+00  0.0000E+00
    -10.874  0.5541E-01  0.3231E-02  0.4268E-14  0.4604E-02  0.0000E+00  0.0000E+00  0.0000E+00  0.0000E+00  0.0000E+00
    -10.780  0.5072E-01  0.3408E-02  0.3027E-14  0.4439E-02  0.0000E+00  0.0000E+00  0.0000E+00  0.0000E+00  0.0000E+00
    -10.687  0.7616E-01  0.3425E-02  0.4136E-14  0.4415E-02  0.0000E+00  0.0000E+00  0.0000E+00  0.0000E+00  0.0000E+00
    -10.593  0.1733E+00  0.4053E-02  0.1569E-13  0.4960E-02  0.0000E+00  0.0000E+00  0.0000E+00  0.0000E+00  0.0000E+00
    -10.499  0.2039E+00  0.4720E-02  0.2650E-13  0.5754E-02  0.0000E+00  0.0000E+00  0.0000E+00  0.0000E+00  0.0000E+00
    -10.405  0.1547E+00  0.5737E-02  0.1574E-13  0.6764E-02  0.0000E+00  0.0000E+00  0.0000E+00  0.0000E+00  0.0000E+00
    -10.312  0.1332E+00  0.6763E-02  0.6909E-14  0.8658E-02  0.0000E+00  0.0000E+00  0.0000E+00  0.0000E+00  0.0000E+00
    -10.218  0.1442E+00  0.9447E-02  0.6509E-14  0.1205E-01  0.0000E+00  0.0000E+00  0.0000E+00  0.0000E+00  0.0000E+00
    -10.124  0.1368E+00  0.1141E-01  0.5355E-14  0.1278E-01  0.0000E+00  0.0000E+00  0.0000E+00  0.0000E+00  0.0000E+00
    -10.031  0.1188E+00  0.1708E-01  0.9984E-14  0.1505E-01  0.0000E+00  0.0000E+00  0.0000E+00  0.0000E+00  0.0000E+00
     -9.937  0.1076E+00  0.2719E-01  0.1901E-13  0.2195E-01  0.0000E+00  0.0000E+00  0.0000E+00  0.0000E+00  0.0000E+00
     -9.843  0.1002E+00  0.2968E-01  0.1471E-13  0.2241E-01  0.0000E+00  0.0000E+00  0.0000E+00  0.0000E+00  0.0000E+00
     -9.749  0.1013E+00  0.3006E-01  0.1431E-13  0.2138E-01  0.0000E+00  0.0000E+00  0.0000E+00  0.0000E+00  0.0000E+00
     -9.656  0.1208E+00  0.3871E-01  0.2611E-13  0.2800E-01  0.0000E+00  0.0000E+00  0.0000E+00  0.0000E+00  0.0000E+00
     -9.562  0.1498E+00  0.4260E-01  0.3581E-13  0.3588E-01  0.0000E+00  0.0000E+00  0.0000E+00  0.0000E+00  0.0000E+00
     -9.468  0.1243E+00  0.2559E-01  0.2863E-13  0.2784E-01  0.0000E+00  0.0000E+00  0.0000E+00  0.0000E+00  0.0000E+00
     -9.375  0.1078E+00  0.2206E-01  0.2524E-13  0.2244E-01  0.0000E+00  0.0000E+00  0.0000E+00  0.0000E+00  0.0000E+00
     -9.281  0.1112E+00  0.2444E-01  0.2838E-13  0.2267E-01  0.0000E+00  0.0000E+00  0.0000E+00  0.0000E+00  0.0000E+00
     -9.187  0.1522E+00  0.2315E-01  0.2805E-13  0.2636E-01  0.0000E+00  0.0000E+00  0.0000E+00  0.0000E+00  0.0000E+00
     -9.093  0.1623E+00  0.2448E-01  0.3849E-13  0.2758E-01  0.0000E+00  0.0000E+00  0.0000E+00  0.0000E+00  0.0000E+00
     -9.000  0.1168E+00  0.2450E-01  0.4792E-13  0.2307E-01  0.0000E+00  0.0000E+00  0.0000E+00  0.0000E+00  0.0000E+00
     -8.906  0.8252E-01  0.2474E-01  0.3592E-13  0.2085E-01  0.0000E+00  0.0000E+00  0.0000E+00  0.0000E+00  0.0000E+00
     -8.812  0.7000E-01  0.2568E-01  0.1650E-13  0.2048E-01  0.0000E+00  0.0000E+00  0.0000E+00  0.0000E+00  0.0000E+00
     -8.718  0.9867E-01  0.2643E-01  0.1288E-13  0.3158E-01  0.0000E+00  0.0000E+00  0.0000E+00  0.0000E+00  0.0000E+00
     -8.625  0.1256E+00  0.2964E-01  0.2468E-13  0.4422E-01  0.0000E+00  0.0000E+00  0.0000E+00  0.0000E+00  0.0000E+00
     -8.531  0.1180E+00  0.3411E-01  0.2774E-12  0.5642E-01  0.0000E+00  0.0000E+00  0.0000E+00  0.0000E+00  0.0000E+00
     -8.437  0.1136E+00  0.4533E-01  0.9838E-09  0.5766E-01  0.0000E+00  0.0000E+00  0.0000E+00  0.0000E+00  0.0000E+00
     -8.344  0.9781E-01  0.5531E-01  0.7777E-06  0.4863E-01  0.0000E+00  0.0000E+00  0.0000E+00  0.0000E+00  0.0000E+00
     -8.250  0.8911E-01  0.5333E-01  0.1182E-03  0.4116E-01  0.0000E+00  0.0000E+00  0.0000E+00  0.0000E+00  0.0000E+00
     -8.156  0.5766E-01  0.3275E-01  0.3678E-02  0.2019E-01  0.0000E+00  0.0000E+00  0.0000E+00  0.0000E+00  0.0000E+00
     -8.062  0.4221E-01  0.2443E-01  0.2606E-01  0.8074E-02  0.0000E+00  0.0000E+00  0.0000E+00  0.0000E+00  0.0000E+00
     -7.969  0.3992E-01  0.2647E-01  0.5091E-01  0.5762E-02  0.0000E+00  0.0000E+00  0.0000E+00  0.0000E+00  0.0000E+00
     -7.875  0.3705E-01  0.2758E-01  0.4283E-01  0.4956E-02  0.0000E+00  0.0000E+00  0.0000E+00  0.0000E+00  0.0000E+00
     -7.781  0.2886E-01  0.1767E-01  0.3858E-01  0.3986E-02  0.0000E+00  0.0000E+00  0.0000E+00  0.0000E+00  0.0000E+00
     -7.688  0.1528E-01  0.7462E-02  0.4427E-01  0.2474E-02  0.0000E+00  0.0000E+00  0.0000E+00  0.0000E+00  0.0000E+00
     -7.594  0.1025E-01  0.6865E-02  0.3827E-01  0.7092E-02  0.0000E+00  0.0000E+00  0.0000E+00  0.0000E+00  0.0000E+00
     -7.500  0.3291E-01  0.2405E-01  0.3326E-01  0.2999E-01  0.0000E+00  0.0000E+00  0.0000E+00  0.0000E+00  0.0000E+00
     -7.406  0.4947E-01  0.3644E-01  0.4063E-01  0.4580E-01  0.0000E+00  0.0000E+00  0.0000E+00  0.0000E+00  0.0000E+00
     -7.313  0.5818E-01  0.5138E-01  0.4330E-01  0.4867E-01  0.0000E+00  0.0000E+00  0.0000E+00  0.0000E+00  0.0000E+00
     -7.219  0.8098E-01  0.8329E-01  0.3478E-01  0.7389E-01  0.0000E+00  0.0000E+00  0.0000E+00  0.0000E+00  0.0000E+00
     -7.125  0.9711E-01  0.9367E-01  0.2819E-01  0.8317E-01  0.0000E+00  0.0000E+00  0.0000E+00  0.0000E+00  0.0000E+00
     -7.032  0.9819E-01  0.8008E-01  0.2456E-01  0.6525E-01  0.0000E+00  0.0000E+00  0.0000E+00  0.0000E+00  0.0000E+00
     -6.938  0.8375E-01  0.5889E-01  0.1967E-01  0.4586E-01  0.0000E+00  0.0000E+00  0.0000E+00  0.0000E+00  0.0000E+00
     -6.844  0.5072E-01  0.3925E-01  0.9838E-02  0.3209E-01  0.0000E+00  0.0000E+00  0.0000E+00  0.0000E+00  0.0000E+00
     -6.750  0.1990E-01  0.3733E-01  0.2544E-02  0.3139E-01  0.0000E+00  0.0000E+00  0.0000E+00  0.0000E+00  0.0000E+00
     -6.657  0.1348E-01  0.6108E-01  0.2749E-03  0.4972E-01  0.0000E+00  0.0000E+00  0.0000E+00  0.0000E+00  0.0000E+00
     -6.563  0.2014E-01  0.8945E-01  0.8408E-05  0.6675E-01  0.0000E+00  0.0000E+00  0.0000E+00  0.0000E+00  0.0000E+00
     -6.469  0.3241E-01  0.1063E+00  0.5667E-07  0.9167E-01  0.0000E+00  0.0000E+00  0.0000E+00  0.0000E+00  0.0000E+00
     -6.375  0.2903E-01  0.9546E-01  0.2971E-08  0.8531E-01  0.0000E+00  0.0000E+00  0.0000E+00  0.0000E+00  0.0000E+00
     -6.282  0.1928E-01  0.7669E-01  0.1712E-05  0.5467E-01  0.0000E+00  0.0000E+00  0.0000E+00  0.0000E+00  0.0000E+00
     -6.188  0.1965E-01  0.7687E-01  0.1996E-03  0.5356E-01  0.0000E+00  0.0000E+00  0.0000E+00  0.0000E+00  0.0000E+00
     -6.094  0.1768E-01  0.7925E-01  0.4939E-02  0.6870E-01  0.0000E+00  0.0000E+00  0.0000E+00  0.0000E+00  0.0000E+00
     -6.001  0.1506E-01  0.8834E-01  0.2929E-01  0.8278E-01  0.0000E+00  0.0000E+00  0.0000E+00  0.0000E+00  0.0000E+00
     -5.907  0.1532E-01  0.1220E+00  0.5404E-01  0.1357E+00  0.0000E+00  0.0000E+00  0.0000E+00  0.0000E+00  0.0000E+00