    8    8    1    1
  0.3200611E+02  0.5174714E-09  0.5173615E-09  0.1104441E-08  0.5000000E-15
  1.000000000000000E-004
  CAR 
 BC3                                     
     30    120     24
 
 -0.3330000E+00  0.6670000E+00  0.0000000E+00  0.8333333E-02
    1      -18.872349   1.000000
    2      -16.586678   1.000000
    3      -15.731925   1.000000
    4      -13.438907   1.000000
    5      -11.819393   1.000000
    6      -10.260170   1.000000
    7       -8.792457   1.000000
    8       -8.722244   1.000000
    9       -7.427621   1.000000
   10       -7.230557   1.000000
   11       -5.649244   1.000000
   12       -5.316589   1.000000
   13       -5.101069   1.000000
   14       -4.067916   1.000000
   15       -4.012523   1.000000
   16       -2.375515   0.000000
   17        1.080920   0.000000
   18        1.842594   0.000000
   19        2.200385   0.000000
   20        3.369701   0.000000
   21        3.931776   0.000000
   22        4.504749   0.000000
   23        4.635198   0.000000
   24        5.942279   0.000000
 
 -0.3244615E+00  0.6498974E+00  0.0000000E+00  0.8333333E-02
    1      -18.863134   1.000000
    2      -16.603502   1.000000
    3      -15.746169   1.000000
    4      -13.431006   1.000000
    5      -11.809086   1.000000
    6      -10.212550   1.000000
    7       -8.825085   1.000000
    8       -8.679891   1.000000
    9       -7.410057   1.000000
   10       -7.249875   1.000000
   11       -5.655260   1.000000
   12       -5.340966   1.000000
   13       -5.142951   1.000000
   14       -4.089268   1.000000
   15       -4.037075   1.000000
   16       -2.365655   0.000000
   17        1.046196   0.000000
   18        1.911177   0.000000
   19        2.225170   0.000000
   20        3.406367   0.000000
   21        3.970881   0.000000
   22        4.529515   0.000000
   23        4.597678   0.000000
   24        5.905849   0.000000
 
 -0.3159231E+00  0.6327949E+00  0.0000000E+00  0.8333333E-02
    1      -18.851095   1.000000
    2      -16.618411   1.000000
    3      -15.778965   1.000000
    4      -13.396695   1.000000
    5      -11.821434   1.000000
    6      -10.138199   1.000000
    7       -8.876745   1.000000
    8       -8.627562   1.000000
    9       -7.387174   1.000000
   10       -7.250123   1.000000
   11       -5.684611   1.000000
   12       -5.361779   1.000000
   13       -5.184284   1.000000
   14       -4.145341   1.000000
   15       -4.079986   1.000000
   16       -2.321316   0.000000
   17        0.945525   0.000000
   18        2.059330   0.000000
   19        2.257538   0.000000
   20        3.447284   0.000000
   21        4.011621   0.000000
   22        4.562020   0.000000
   23        4.567717   0.000000
   24        5.875081   0.000000
 
 -0.3073846E+00  0.6156923E+00  0.0000000E+00  0.8333333E-02
    1      -18.836394   1.000000
    2      -16.631321   1.000000
    3      -15.827911   1.000000
    4      -13.338533   1.000000
    5      -11.852212   1.000000
    6      -10.042088   1.000000
    7       -8.943465   1.000000
    8       -8.566827   1.000000
    9       -7.359072   1.000000
   10       -7.233380   1.000000
   11       -5.735946   1.000000
   12       -5.379034   1.000000
   13       -5.224965   1.000000
   14       -4.230008   1.000000
   15       -4.140543   1.000000
   16       -2.248342   0.000000
   17        0.815807   0.000000
   18        2.249097   0.000000
   19        2.297474   0.000000
   20        3.493059   0.000000
   21        4.053255   0.000000
   22        4.545258   0.000000
   23        4.602253   0.000000
   24        5.849979   0.000000
 
 -0.2988462E+00  0.5985897E+00  0.0000000E+00  0.8333333E-02
    1      -18.819256   1.000000
    2      -16.642351   1.000000
    3      -15.889442   1.000000
    4      -13.260447   1.000000
    5      -11.896014   1.000000
    6       -9.931054   1.000000
    7       -9.020315   1.000000
    8       -8.498131   1.000000
    9       -7.325980   1.000000
   10       -7.203324   1.000000
   11       -5.806524   1.000000
   12       -5.393012   1.000000
   13       -5.265817   1.000000
   14       -4.335213   1.000000
   15       -4.217214   1.000000
   16       -2.154744   0.000000
   17        0.677315   0.000000
   18        2.344963   0.000000
   19        2.459654   0.000000
   20        3.544082   0.000000
   21        4.095325   0.000000
   22        4.530311   0.000000
   23        4.650122   0.000000
   24        5.847087   0.000000
 
 -0.2903077E+00  0.5814872E+00  0.0000000E+00  0.8333333E-02
    1      -18.799971   1.000000
    2      -16.651863   1.000000
    3      -15.959425   1.000000
    4      -13.167232   1.000000
    5      -11.947288   1.000000
    6       -9.813973   1.000000
    7       -9.099955   1.000000
    8       -8.421688   1.000000
    9       -7.288112   1.000000
   10       -7.164828   1.000000
   11       -5.892136   1.000000
   12       -5.404422   1.000000
   13       -5.308323   1.000000
   14       -4.452955   1.000000
   15       -4.307715   1.000000
   16       -2.048511   0.000000
   17        0.539610   0.000000
   18        2.399984   0.000000
   19        2.680498   0.000000
   20        3.600773   0.000000
   21        4.137814   0.000000
   22        4.522820   0.000000
   23        4.705567   0.000000
   24        5.680961   0.000000
 
 -0.2817692E+00  0.5643846E+00  0.0000000E+00  0.8333333E-02
    1      -18.778902   1.000000
    2      -16.660507   1.000000
    3      -16.033553   1.000000
    4      -13.064444   1.000000
    5      -12.000525   1.000000
    6       -9.704920   1.000000
    7       -9.169379   1.000000
    8       -8.337598   1.000000
    9       -7.245774   1.000000
   10       -7.123832   1.000000
   11       -5.987402   1.000000
   12       -5.414460   1.000000
   13       -5.354056   1.000000
   14       -4.576119   1.000000
   15       -4.408897   1.000000
   16       -1.936736   0.000000
   17        0.408122   0.000000
   18        2.462512   0.000000
   19        2.904785   0.000000
   20        3.663883   0.000000
   21        4.181333   0.000000
   22        4.522741   0.000000
   23        4.768503   0.000000
   24        5.443173   0.000000
 
 -0.2732308E+00  0.5472821E+00  0.0000000E+00  0.8333333E-02
    1      -18.756512   1.000000
    2      -16.669341   1.000000
    3      -16.107481   1.000000
    4      -12.958763   1.000000
    5      -12.049756   1.000000
    6       -9.631744   1.000000
    7       -9.201420   1.000000
    8       -8.246088   1.000000
    9       -7.199411   1.000000
   10       -7.087669   1.000000
   11       -6.085656   1.000000
   12       -5.425292   1.000000
   13       -5.404390   1.000000
   14       -4.698060   1.000000
   15       -4.516771   1.000000
   16       -1.825854   0.000000
   17        0.287001   0.000000
   18        2.532520   0.000000
   19        3.125540   0.000000
   20        3.734734   0.000000
   21        4.227520   0.000000
   22        4.530028   0.000000
   23        4.838843   0.000000
   24        5.207758   0.000000
 
 -0.2646923E+00  0.5301795E+00  0.0000000E+00  0.8333333E-02
    1      -18.733363   1.000000
    2      -16.679908   1.000000
    3      -16.176765   1.000000
    4      -12.858990   1.000000
    5      -12.087442   1.000000
    6       -9.627791   1.000000
    7       -9.163089   1.000000
    8       -8.147696   1.000000
    9       -7.149631   1.000000
   10       -7.065478   1.000000
   11       -6.178257   1.000000
   12       -5.460620   1.000000
   13       -5.440532   1.000000
   14       -4.811606   1.000000
   15       -4.626236   1.000000
   16       -1.722020   0.000000
   17        0.180081   0.000000
   18        2.609987   0.000000
   19        3.332567   0.000000
   20        3.816908   0.000000
   21        4.280035   0.000000
   22        4.544617   0.000000
   23        4.916282   0.000000
   24        4.977607   0.000000
 
 -0.2561538E+00  0.5130769E+00  0.0000000E+00  0.8333333E-02
    1      -18.710137   1.000000
    2      -16.694177   1.000000
    3      -16.236910   1.000000
    4      -12.776968   1.000000
    5      -12.103506   1.000000
    6       -9.680818   1.000000
    7       -9.066609   1.000000
    8       -8.043959   1.000000
    9       -7.097302   1.000000
   10       -7.067393   1.000000
   11       -6.255567   1.000000
   12       -5.523684   1.000000
   13       -5.465534   1.000000
   14       -4.908416   1.000000
   15       -4.731338   1.000000
   16       -1.631307   0.000000
   17        0.091642   0.000000
   18        2.694889   0.000000
   19        3.509370   0.000000
   20        3.916838   0.000000
   21        4.345918   0.000000
   22        4.566248   0.000000
   23        4.752998   0.000000
   24        5.001760   0.000000
 
 -0.2476154E+00  0.4959744E+00  0.0000000E+00  0.8333333E-02
    1      -18.687631   1.000000
    2      -16.714018   1.000000
    3      -16.283797   1.000000
    4      -12.725479   1.000000
    5      -12.087457   1.000000
    6       -9.755937   1.000000
    7       -8.946601   1.000000
    8       -7.938790   1.000000
    9       -7.099096   1.000000
   10       -7.043595   1.000000
   11       -6.311519   1.000000
   12       -5.593007   1.000000
   13       -5.506317   1.000000
   14       -4.979798   1.000000
   15       -4.825457   1.000000
   16       -1.559563   0.000000
   17        0.025951   0.000000
   18        2.787209   0.000000
   19        3.637209   0.000000
   20        4.037920   0.000000
   21        4.437281   0.000000
   22        4.532228   0.000000
   23        4.598338   0.000000
   24        5.094030   0.000000
 
 -0.2390769E+00  0.4788718E+00  0.0000000E+00  0.8333333E-02
    1      -18.666778   1.000000
    2      -16.740054   1.000000
    3      -16.314771   1.000000
    4      -12.710048   1.000000
    5      -12.036791   1.000000
    6       -9.833506   1.000000
    7       -8.821998   1.000000
    8       -7.841895   1.000000
    9       -7.152178   1.000000
   10       -6.990264   1.000000
   11       -6.350843   1.000000
   12       -5.664668   1.000000
   13       -5.564930   1.000000
   14       -5.020879   1.000000
   15       -4.902519   1.000000
   16       -1.511844   0.000000
   17       -0.013475   0.000000
   18        2.886926   0.000000
   19        3.712528   0.000000
   20        4.166824   0.000000
   21        4.322560   0.000000
   22        4.567616   0.000000
   23        4.633358   0.000000
   24        5.193568   0.000000
 
 -0.2305385E+00  0.4617692E+00  0.0000000E+00  0.8333333E-02
    1      -18.648618   1.000000
    2      -16.770646   1.000000
    3      -16.329612   1.000000
    4      -12.724077   1.000000
    5      -11.961978   1.000000
    6       -9.903253   1.000000
    7       -8.702241   1.000000
    8       -7.776038   1.000000
    9       -7.196254   1.000000
   10       -6.939848   1.000000
   11       -6.389951   1.000000
   12       -5.729670   1.000000
   13       -5.636026   1.000000
   14       -5.033868   1.000000
   15       -4.957994   1.000000
   16       -1.490892   0.000000
   17       -0.025284   0.000000
   18        2.994021   0.000000
   19        3.744855   0.000000
   20        4.118417   0.000000
   21        4.287605   0.000000
   22        4.677088   0.000000
   23        4.735576   0.000000
   24        5.300348   0.000000
 
 -0.2220000E+00  0.4446667E+00  0.0000000E+00  0.8333333E-02
    1      -18.634253   1.000000
    2      -16.802166   1.000000
    3      -16.330224   1.000000
    4      -12.756216   1.000000
    5      -11.879205   1.000000
    6       -9.957772   1.000000
    7       -8.594817   1.000000
    8       -7.774684   1.000000
    9       -7.186776   1.000000
   10       -6.895941   1.000000
   11       -6.447382   1.000000
   12       -5.776548   1.000000
   13       -5.709005   1.000000
   14       -5.025180   1.000000
   15       -4.989573   1.000000
   16       -1.496007   0.000000
   17       -0.011059   0.000000
   18        3.108486   0.000000
   19        3.743605   0.000000
   20        3.921231   0.000000
   21        4.401527   0.000000
   22        4.728195   0.000000
   23        4.905879   0.000000
   24        5.256357   0.000000
 
 -0.2134615E+00  0.4275641E+00  0.0000000E+00  0.8333333E-02
    1      -18.624781   1.000000
    2      -16.830374   1.000000
    3      -16.319324   1.000000
    4      -12.797575   1.000000
    5      -11.802930   1.000000
    6       -9.990444   1.000000
    7       -8.510919   1.000000
    8       -7.836680   1.000000
    9       -7.113908   1.000000
   10       -6.863403   1.000000
   11       -6.529010   1.000000
   12       -5.799486   1.000000
   13       -5.772722   1.000000
   14       -5.000906   1.000000
   15       -4.996501   1.000000
   16       -1.523369   0.000000
   17        0.024264   0.000000
   18        3.230296   0.000000
   19        3.714671   0.000000
   20        3.731170   0.000000
   21        4.514615   0.000000
   22        4.786578   0.000000
   23        4.934649   0.000000
   24        5.271580   0.000000
 
 -0.2049231E+00  0.4104615E+00  0.0000000E+00  0.8333333E-02
    1      -18.621192   1.000000
    2      -16.851532   1.000000
    3      -16.299384   1.000000
    4      -12.842706   1.000000
    5      -11.744039   1.000000
    6       -9.995577   1.000000
    7       -8.472760   1.000000
    8       -7.911850   1.000000
    9       -7.021888   1.000000
   10       -6.847894   1.000000
   11       -6.613134   1.000000
   12       -5.817231   1.000000
   13       -5.802689   1.000000
   14       -4.979203   1.000000
   15       -4.965240   1.000000
   16       -1.567389   0.000000
   17        0.074300   0.000000
   18        3.359386   0.000000
   19        3.548360   0.000000
   20        3.661837   0.000000
   21        4.626111   0.000000
   22        4.812579   0.000000
   23        4.852195   0.000000
   24        5.446588   0.000000
 
 -0.1963846E+00  0.3933590E+00  0.0000000E+00  0.8333333E-02
    1      -18.624228   1.000000
    2      -16.862860   1.000000
    3      -16.272286   1.000000
    4      -12.888433   1.000000
    5      -11.709499   1.000000
    6       -9.969669   1.000000
    7       -8.510801   1.000000
    8       -7.947765   1.000000
    9       -6.995377   1.000000
   10       -6.854152   1.000000
   11       -6.626491   1.000000
   12       -5.835178   1.000000
   13       -5.793956   1.000000
   14       -4.939268   1.000000
   15       -4.920797   1.000000
   16       -1.622391   0.000000
   17        0.132878   0.000000
   18        3.372432   0.000000
   19        3.496173   0.000000
   20        3.588361   0.000000
   21        4.634040   0.000000
   22        4.770908   0.000000
   23        4.925014   0.000000
   24        5.513377   0.000000
 
 -0.1878462E+00  0.3762564E+00  0.0000000E+00  0.8333333E-02
    1      -18.634286   1.000000
    2      -16.862552   1.000000
    3      -16.239399   1.000000
    4      -12.932849   1.000000
    5      -11.701856   1.000000
    6       -9.912944   1.000000
    7       -8.625016   1.000000
    8       -7.937456   1.000000
    9       -7.075571   1.000000
   10       -6.883713   1.000000
   11       -6.526026   1.000000
   12       -5.823502   1.000000
   13       -5.777968   1.000000
   14       -4.879328   1.000000
   15       -4.869386   1.000000
   16       -1.683557   0.000000
   17        0.194874   0.000000
   18        3.204225   0.000000
   19        3.496951   0.000000
   20        3.639830   0.000000
   21        4.488694   0.000000
   22        4.871260   0.000000
   23        5.004983   0.000000
   24        5.447535   0.000000
 
 -0.1793077E+00  0.3591538E+00  0.0000000E+00  0.8333333E-02
    1      -18.651335   1.000000
    2      -16.849696   1.000000
    3      -16.201721   1.000000
    4      -12.974751   1.000000
    5      -11.719522   1.000000
    6       -9.830113   1.000000
    7       -8.782645   1.000000
    8       -7.918966   1.000000
    9       -7.184442   1.000000
   10       -6.933908   1.000000
   11       -6.379442   1.000000
   12       -5.783967   1.000000
   13       -5.753976   1.000000
   14       -4.812183   1.000000
   15       -4.802884   1.000000
   16       -1.747034   0.000000
   17        0.256287   0.000000
   18        3.043232   0.000000
   19        3.390038   0.000000
   20        3.790878   0.000000
   21        4.335531   0.000000
   22        4.918389   0.000000
   23        5.092012   0.000000
   24        5.330888   0.000000
 
 -0.1707692E+00  0.3420513E+00  0.0000000E+00  0.8333333E-02
    1      -18.674931   1.000000
    2      -16.824129   1.000000
    3      -16.160023   1.000000
    4      -13.013335   1.000000
    5      -11.758261   1.000000
    6       -9.730740   1.000000
    7       -8.956001   1.000000
    8       -7.935627   1.000000
    9       -7.262465   1.000000
   10       -6.999514   1.000000
   11       -6.229488   1.000000
   12       -5.721338   1.000000
   13       -5.714833   1.000000
   14       -4.750206   1.000000
   15       -4.713575   1.000000
   16       -1.809931   0.000000
   17        0.314463   0.000000
   18        2.889574   0.000000
   19        3.269872   0.000000
   20        3.949190   0.000000
   21        4.181140   0.000000
   22        4.809810   0.000000
   23        5.183198   0.000000
   24        5.197812   0.000000
 
 -0.1622308E+00  0.3249487E+00  0.0000000E+00  0.8333333E-02
    1      -18.704285   1.000000
    2      -16.786253   1.000000
    3      -16.114936   1.000000
    4      -13.048049   1.000000
    5      -11.813004   1.000000
    6       -9.634809   1.000000
    7       -9.119912   1.000000
    8       -8.015401   1.000000
    9       -7.278960   1.000000
   10       -7.075062   1.000000
   11       -6.100939   1.000000
   12       -5.646034   1.000000
   13       -5.640850   1.000000
   14       -4.684297   1.000000
   15       -4.614840   1.000000
   16       -1.869897   0.000000
   17        0.367543   0.000000
   18        2.743275   0.000000
   19        3.138878   0.000000
   20        4.024375   0.000000
   21        4.114713   0.000000
   22        4.622068   0.000000
   23        5.048375   0.000000
   24        5.287475   0.000000
 
 -0.1536923E+00  0.3078462E+00  0.0000000E+00  0.8333333E-02
    1      -18.738379   1.000000
    2      -16.736875   1.000000
    3      -16.067016   1.000000
    4      -13.078488   1.000000
    5      -11.879094   1.000000
    6       -9.601286   1.000000
    7       -9.215577   1.000000
    8       -8.151002   1.000000
    9       -7.239752   1.000000
   10       -7.156074   1.000000
   11       -6.011270   1.000000
   12       -5.546932   1.000000
   13       -5.533751   1.000000
   14       -4.615317   1.000000
   15       -4.509611   1.000000
   16       -1.925042   0.000000
   17        0.414510   0.000000
   18        2.604361   0.000000
   19        2.998833   0.000000
   20        3.862392   0.000000
   21        4.287411   0.000000
   22        4.419607   0.000000
   23        4.909815   0.000000
   24        5.395251   0.000000
 
 -0.1451538E+00  0.2907436E+00  0.0000000E+00  0.8333333E-02
    1      -18.776089   1.000000
    2      -16.677035   1.000000
    3      -16.016785   1.000000
    4      -13.104352   1.000000
    5      -11.952746   1.000000
    6       -9.702286   1.000000
    7       -9.172773   1.000000
    8       -8.318750   1.000000
    9       -7.239284   1.000000
   10       -7.167137   1.000000
   11       -5.958027   1.000000
   12       -5.443020   1.000000
   13       -5.382272   1.000000
   14       -4.544180   1.000000
   15       -4.400374   1.000000
   16       -1.973760   0.000000
   17        0.454595   0.000000
   18        2.472844   0.000000
   19        2.851513   0.000000
   20        3.691036   0.000000
   21        4.220910   0.000000
   22        4.467216   0.000000
   23        4.778548   0.000000
   24        5.509476   0.000000
 
 -0.1366154E+00  0.2736410E+00  0.0000000E+00  0.8333333E-02
    1      -18.816292   1.000000
    2      -16.607890   1.000000
    3      -15.964758   1.000000
    4      -13.125438   1.000000
    5      -12.031079   1.000000
    6       -9.874513   1.000000
    7       -9.057013   1.000000
    8       -8.501759   1.000000
    9       -7.322386   1.000000
   10       -7.076566   1.000000
   11       -5.926167   1.000000
   12       -5.331691   1.000000
   13       -5.207849   1.000000
   14       -4.471865   1.000000
   15       -4.289199   1.000000
   16       -2.014599   0.000000
   17        0.487554   0.000000
   18        2.348737   0.000000
   19        2.698543   0.000000
   20        3.506152   0.000000
   21        4.035529   0.000000
   22        4.652793   0.000000
   23        4.655874   0.000000
   24        5.629718   0.000000
 
 -0.1280769E+00  0.2565385E+00  0.0000000E+00  0.8333333E-02
    1      -18.857934   1.000000
    2      -16.530625   1.000000
    3      -15.911453   1.000000
    4      -13.141589   1.000000
    5      -12.111947   1.000000
    6      -10.065236   1.000000
    7       -8.923855   1.000000
    8       -8.690010   1.000000
    9       -7.403786   1.000000
   10       -6.975788   1.000000
   11       -5.904265   1.000000
   12       -5.214910   1.000000
   13       -5.022990   1.000000
   14       -4.399438   1.000000
   15       -4.177746   1.000000
   16       -2.046176   0.000000
   17        0.513618   0.000000
   18        2.232053   0.000000
   19        2.541457   0.000000
   20        3.305547   0.000000
   21        3.868670   0.000000
   22        4.538049   0.000000
   23        4.847802   0.000000
   24        5.754946   0.000000
 
 -0.1195385E+00  0.2394359E+00  0.0000000E+00  0.8333333E-02
    1      -18.900066   1.000000
    2      -16.446423   1.000000
    3      -15.857408   1.000000
    4      -13.152738   1.000000
    5      -12.193769   1.000000
    6      -10.259787   1.000000
    7       -8.890959   1.000000
    8       -8.777170   1.000000
    9       -7.482360   1.000000
   10       -6.868616   1.000000
   11       -5.886441   1.000000
   12       -5.094326   1.000000
   13       -4.834709   1.000000
   14       -4.328056   1.000000
   15       -4.067556   1.000000
   16       -2.067182   0.000000
   17        0.532929   0.000000
   18        2.122804   0.000000
   19        2.381612   0.000000
   20        3.090472   0.000000
   21        3.721293   0.000000
   22        4.428874   0.000000
   23        5.048290   0.000000
   24        5.882731   0.000000
 
 -0.1110000E+00  0.2223333E+00  0.0000000E+00  0.8333333E-02
    1      -18.941860   1.000000
    2      -16.356450   1.000000
    3      -15.803185   1.000000
    4      -13.158872   1.000000
    5      -12.275385   1.000000
    6      -10.452962   1.000000
    7       -9.076381   1.000000
    8       -8.648370   1.000000
    9       -7.557294   1.000000
   10       -6.757173   1.000000
   11       -5.869775   1.000000
   12       -4.971371   1.000000
   13       -4.647055   1.000000
   14       -4.258932   1.000000
   15       -3.959829   1.000000
   16       -2.076318   0.000000
   17        0.546047   0.000000
   18        2.020996   0.000000
   19        2.220369   0.000000
   20        2.864952   0.000000
   21        3.591510   0.000000
   22        4.327079   0.000000
   23        5.255254   0.000000
   24        6.005686   0.000000
 
 -0.1024615E+00  0.2052308E+00  0.0000000E+00  0.8333333E-02
    1      -18.982615   1.000000
    2      -16.261876   1.000000
    3      -15.749372   1.000000
    4      -13.160076   1.000000
    5      -12.355932   1.000000
    6      -10.641991   1.000000
    7       -9.262318   1.000000
    8       -8.522741   1.000000
    9       -7.628004   1.000000
   10       -6.642937   1.000000
   11       -5.852926   1.000000
   12       -4.847451   1.000000
   13       -4.462838   1.000000
   14       -4.193323   1.000000
   15       -3.855726   1.000000
   16       -2.072446   0.000000
   17        0.553322   0.000000
   18        1.926641   0.000000
   19        2.059126   0.000000
   20        2.633688   0.000000
   21        3.476648   0.000000
   22        4.232683   0.000000
   23        5.468197   0.000000
   24        6.096562   0.000000
 
 -0.9392308E-01  0.1881282E+00  0.0000000E+00  0.8333333E-02
    1      -19.021733   1.000000
    2      -16.163891   1.000000
    3      -15.696583   1.000000
    4      -13.156530   1.000000
    5      -12.434780   1.000000
    6      -10.824825   1.000000
    7       -9.443360   1.000000
    8       -8.406083   1.000000
    9       -7.694046   1.000000
   10       -6.527173   1.000000
   11       -5.835281   1.000000
   12       -4.723900   1.000000
   13       -4.284284   1.000000
   14       -4.132478   1.000000
   15       -3.756294   1.000000
   16       -2.054603   0.000000
   17        0.555231   0.000000
   18        1.839752   0.000000
   19        1.899160   0.000000
   20        2.401086   0.000000
   21        3.374500   0.000000
   22        4.145697   0.000000
   23        5.685963   0.000000
   24        6.104685   0.000000
 
 -0.8538462E-01  0.1710256E+00  0.0000000E+00  0.8333333E-02
    1      -19.058721   1.000000
    2      -16.063757   1.000000
    3      -15.645450   1.000000
    4      -13.148540   1.000000
    5      -12.511451   1.000000
    6      -10.999670   1.000000
    7       -9.617685   1.000000
    8       -8.300019   1.000000
    9       -7.755092   1.000000
   10       -6.411296   1.000000
   11       -5.816767   1.000000
   12       -4.602128   1.000000
   13       -4.113201   1.000000
   14       -4.077332   1.000000
   15       -3.662411   1.000000
   16       -2.022217   0.000000
   17        0.552101   0.000000
   18        1.741165   0.000000
   19        1.760339   0.000000
   20        2.171291   0.000000
   21        3.283530   0.000000
   22        4.066133   0.000000
   23        5.902328   0.000000
   24        6.063776   0.000000
 
 -0.7684615E-01  0.1539231E+00  0.0000000E+00  0.8333333E-02
    1      -19.093165   1.000000
    2      -15.962850   1.000000
    3      -15.596623   1.000000
    4      -13.136571   1.000000
    5      -12.585568   1.000000
    6      -11.164765   1.000000
    7       -9.783758   1.000000
    8       -8.205388   1.000000
    9       -7.810873   1.000000
   10       -6.296982   1.000000
   11       -5.797556   1.000000
   12       -4.483551   1.000000
   13       -4.028696   1.000000
   14       -3.951343   1.000000
   15       -3.574950   1.000000
   16       -1.975194   0.000000
   17        0.544360   0.000000
   18        1.584958   0.000000
   19        1.688411   0.000000
   20        1.949469   0.000000
   21        3.202723   0.000000
   22        3.994002   0.000000
   23        5.976813   0.000000
   24        6.150438   0.000000
 
 -0.6830769E-01  0.1368205E+00  0.0000000E+00  0.8333333E-02
    1      -19.124732   1.000000
    2      -15.862723   1.000000
    3      -15.550754   1.000000
    4      -13.121253   1.000000
    5      -12.656770   1.000000
    6      -11.318285   1.000000
    7       -9.940031   1.000000
    8       -8.122413   1.000000
    9       -7.861221   1.000000
   10       -6.186101   1.000000
   11       -5.778034   1.000000
   12       -4.369956   1.000000
   13       -3.986958   1.000000
   14       -3.800469   1.000000
   15       -3.494725   1.000000
   16       -1.914072   0.000000
   17        0.532250   0.000000
   18        1.428590   0.000000
   19        1.623983   0.000000
   20        1.742212   0.000000
   21        3.131401   0.000000
   22        3.929323   0.000000
   23        5.916450   0.000000
   24        6.278506   0.000000
 
 -0.5976923E-01  0.1197179E+00  0.0000000E+00  0.8333333E-02
    1      -19.153138   1.000000
    2      -15.765143   1.000000
    3      -15.508475   1.000000
    4      -13.103417   1.000000
    5      -12.724631   1.000000
    6      -11.458343   1.000000
    7      -10.084882   1.000000
    8       -8.051023   1.000000
    9       -7.905917   1.000000
   10       -6.080745   1.000000
   11       -5.758752   1.000000
   12       -4.262917   1.000000
   13       -3.952062   1.000000
   14       -3.662304   1.000000
   15       -3.422406   1.000000
   16       -1.840244   0.000000
   17        0.516148   0.000000
   18        1.267856   0.000000
   19        1.558610   0.000000
   20        1.567074   0.000000
   21        3.069124   0.000000
   22        3.872124   0.000000
   23        5.853000   0.000000
   24        6.156849   0.000000
 
 -0.5123077E-01  0.1026154E+00  0.0000000E+00  0.8333333E-02
    1      -19.178155   1.000000
    2      -15.672176   1.000000
    3      -15.470401   1.000000
    4      -13.084102   1.000000
    5      -12.788533   1.000000
    6      -11.583074   1.000000
    7      -10.216572   1.000000
    8       -7.990791   1.000000
    9       -7.944872   1.000000
   10       -5.983161   1.000000
   11       -5.740319   1.000000
   12       -4.164438   1.000000
   13       -3.923738   1.000000
   14       -3.538449   1.000000
   15       -3.358514   1.000000
   16       -1.756021   0.000000
   17        0.496471   0.000000
   18        1.099698   0.000000
   19        1.406744   0.000000
   20        1.517698   0.000000
   21        3.015577   0.000000
   22        3.822431   0.000000
   23        5.792769   0.000000
   24        6.006364   0.000000
 
 -0.4269231E-01  0.8551282E-01  0.0000000E+00  0.8333333E-02
    1      -19.199602   1.000000
    2      -15.586191   1.000000
    3      -15.437103   1.000000
    4      -13.064519   1.000000
    5      -12.847537   1.000000
    6      -11.690754   1.000000
    7      -10.333187   1.000000
    8       -7.977971   1.000000
    9       -7.941239   1.000000
   10       -5.895673   1.000000
   11       -5.723365   1.000000
   12       -4.076309   1.000000
   13       -3.901366   1.000000
   14       -3.430419   1.000000
   15       -3.303646   1.000000
   16       -1.664885   0.000000
   17        0.474049   0.000000
   18        0.928158   0.000000
   19        1.287975   0.000000
   20        1.475872   0.000000