       N       E                     dE             d eps       ncg     rms          rms(c)
DAV:   1     0.139336562277E+03    0.13934E+03   -0.10515E+04  5760   0.862E+02
DAV:   2    -0.463151227848E+02   -0.18565E+03   -0.17038E+03  8772   0.171E+02
DAV:   3    -0.659038224080E+02   -0.19589E+02   -0.19396E+02  6876   0.666E+01
DAV:   4    -0.662596008426E+02   -0.35578E+00   -0.35546E+00  7980   0.107E+01
DAV:   5    -0.662684015980E+02   -0.88008E-02   -0.87993E-02  7512   0.154E+00
DAV:   6    -0.662688088249E+02   -0.40723E-03   -0.40722E-03  9024   0.331E-01
DAV:   7    -0.662688172280E+02   -0.84031E-05   -0.84028E-05  8160   0.368E-02
DAV:   8    -0.662688174937E+02   -0.26567E-06   -0.26573E-06  7692   0.535E-03
   1 F= -.66268817E+02 E0= -.66268817E+02  d E =-.207782E-06
