 vasp.5.4.4.18Apr17-6-g9f103f2a35 (build Mar 30 2023 15:39:25) complex          
  
 executed on             LinuxIFC date 2023.05.27  00:29:56
 running on   12 total cores
 distrk:  each k-point on   12 cores,    1 groups
 distr:  one band on NCORES_PER_BAND=   1 cores,   12 groups


--------------------------------------------------------------------------------------------------------


 INCAR:
 POTCAR:    PAW_PBE B 06Sep2000                   
 POTCAR:    PAW_PBE C 08Apr2002                   

 ----------------------------------------------------------------------------- 
|                                                                             |
|           W    W    AA    RRRRR   N    N  II  N    N   GGGG   !!!           |
|           W    W   A  A   R    R  NN   N  II  NN   N  G    G  !!!           |
|           W    W  A    A  R    R  N N  N  II  N N  N  G       !!!           |
|           W WW W  AAAAAA  RRRRR   N  N N  II  N  N N  G  GGG   !            |
|           WW  WW  A    A  R   R   N   NN  II  N   NN  G    G                |
|           W    W  A    A  R    R  N    N  II  N    N   GGGG   !!!           |
|                                                                             |
|      For optimal performance we recommend to set                            |
|        NCORE= 4 - approx SQRT( number of cores)                             |
|      NCORE specifies how many cores store one orbital (NPAR=cpu/NCORE).     |
|      This setting can  greatly improve the performance of VASP for DFT.     |
|      The default,   NCORE=1            might be grossly inefficient         |
|      on modern multi-core architectures or massively parallel machines.     |
|      Do your own testing !!!!                                               |
|      Unfortunately you need to use the default for GW and RPA calculations. |
|      (for HF NCORE is supported but not extensively tested yet)             |
|                                                                             |
 ----------------------------------------------------------------------------- 

 POTCAR:    PAW_PBE B 06Sep2000                   
   SHA256 =  a32ced30f5ae56fd4d10b4325ff17eb3e4e38ee0f4288bc219fb012fddfa6e97 B/
   COPYR  = (c) Copyright 06Sep2000 Georg Kresse                                
   COPYR  = This file is part of the software VASP. Any use, copying, and all ot
   COPYR  = If you do not have a valid VASP license, you may not use, copy or di
   VRHFIN =B: s2p1                                                              
   LEXCH  = PE                                                                  
   EATOM  =    71.1703 eV,    5.2309 Ry                                         
                                                                                
   TITEL  = PAW_PBE B 06Sep2000                                                 
   LULTRA =        F    use ultrasoft PP ?                                      
   IUNSCR =        1    unscreen: 0-lin 1-nonlin 2-no                           
   RPACOR =    1.200    partial core radius                                     
   POMASS =   10.811; ZVAL   =    3.000    mass and valenz                      
   RCORE  =    1.700    outmost cutoff radius                                   
   RWIGS  =    1.710; RWIGS  =    0.905    wigner-seitz radius (au A)           
   ENMAX  =  318.614; ENMIN  =  238.960 eV                                      
   ICORE  =        2    local potential                                         
   LCOR   =        T    correct aug charges                                     
   LPAW   =        T    paw PP                                                  
   EAUG   =  535.514                                                            
   DEXC   =    0.000                                                            
   RMAX   =    1.732    core radius for proj-oper                               
   RAUG   =    1.300    factor for augmentation sphere                          
   RDEP   =    1.757    radius for radial grids                                 
   RDEPT  =    1.436    core radius for aug-charge                              
                                                                                
   Atomic configuration                                                         
    4 entries                                                                   
     n  l   j            E        occ.                                          
     1  0  0.50      -180.5896   2.0000                                         
     2  0  0.50        -9.4431   2.0000                                         
     2  1  0.50        -3.6068   1.0000                                         
     3  2  1.50        -4.0817   0.0000                                         
   Description                                                                  
     l       E           TYP  RCUT    TYP  RCUT                                 
     0     -9.4430752     23  1.500                                             
     0      0.8675899     23  1.500                                             
     1     -3.6067955     23  1.700                                             
     1      6.1086146     23  1.700                                             
     2     -4.0817478      7  1.700                                             
  local pseudopotential read in
  partial core-charges read in
  partial kinetic energy density read in
  atomic valenz-charges read in
  non local Contribution for L=           0  read in
    real space projection operators read in
  non local Contribution for L=           0  read in
    real space projection operators read in
  non local Contribution for L=           1  read in
    real space projection operators read in
  non local Contribution for L=           1  read in
    real space projection operators read in
    PAW grid and wavefunctions read in
 
   number of l-projection  operators is LMAX  =           4
   number of lm-projection operators is LMMAX =           8
 
 POTCAR:    PAW_PBE C 08Apr2002                   
   SHA256 =  253f7b50bb8d59471dbedb8285d89021f4a42ed1a2c5d38a03a736e69125dd95 C/
   COPYR  = (c) Copyright 08Apr2002 Georg Kresse                                
   COPYR  = This file is part of the software VASP. Any use, copying, and all ot
   COPYR  = If you do not have a valid VASP license, you may not use, copy or di
   VRHFIN =C: s2p2                                                              
   LEXCH  = PE                                                                  
   EATOM  =   147.1560 eV,   10.8157 Ry                                         
                                                                                
   TITEL  = PAW_PBE C 08Apr2002                                                 
   LULTRA =        F    use ultrasoft PP ?                                      
   IUNSCR =        1    unscreen: 0-lin 1-nonlin 2-no                           
   RPACOR =    1.200    partial core radius                                     
   POMASS =   12.011; ZVAL   =    4.000    mass and valenz                      
   RCORE  =    1.500    outmost cutoff radius                                   
   RWIGS  =    1.630; RWIGS  =    0.863    wigner-seitz radius (au A)           
   ENMAX  =  400.000; ENMIN  =  300.000 eV                                      
   ICORE  =        2    local potential                                         
   LCOR   =        T    correct aug charges                                     
   LPAW   =        T    paw PP                                                  
   EAUG   =  644.873                                                            
   DEXC   =    0.000                                                            
   RMAX   =    1.529    core radius for proj-oper                               
   RAUG   =    1.300    factor for augmentation sphere                          
   RDEP   =    1.501    radius for radial grids                                 
   RDEPT  =    1.300    core radius for aug-charge                              
                                                                                
   Atomic configuration                                                         
    4 entries                                                                   
     n  l   j            E        occ.                                          
     1  0  0.50      -273.3789   2.0000                                         
     2  0  0.50       -13.7508   2.0000                                         
     2  1  0.50        -5.2854   2.0000                                         
     3  2  1.50        -5.4423   0.0000                                         
   Description                                                                  
     l       E           TYP  RCUT    TYP  RCUT                                 
     0    -13.7508458     23  1.200                                             
     0     -8.2022199     23  1.200                                             
     1     -5.2854383     23  1.500                                             
     1     34.0145650     23  1.500                                             
     2     -5.4423304      7  1.500                                             
  local pseudopotential read in
  partial core-charges read in
  partial kinetic energy density read in
  atomic valenz-charges read in
  non local Contribution for L=           0  read in
    real space projection operators read in
  non local Contribution for L=           0  read in
    real space projection operators read in
  non local Contribution for L=           1  read in
    real space projection operators read in
  non local Contribution for L=           1  read in
    real space projection operators read in
    PAW grid and wavefunctions read in
 
   number of l-projection  operators is LMAX  =           4
   number of lm-projection operators is LMMAX =           8
 
  PAW_PBE B 06Sep2000                   :
 energy of atom  1       EATOM=  -71.1703
 kinetic energy error for atom=    0.0015 (will be added to EATOM!!)
  PAW_PBE C 08Apr2002                   :
 energy of atom  2       EATOM= -147.1560
 kinetic energy error for atom=    0.0116 (will be added to EATOM!!)
 
 
 POSCAR: BC3 with lattice parameter 5.174Ang, len
  positions in direct lattice
  velocities in cartesian coordinates
 exchange correlation table for  LEXCH =        8
   RHO(1)=    0.500       N(1)  =     2000
   RHO(2)=  100.500       N(2)  =     4000
 


--------------------------------------------------------------------------------------------------------


 ion  position               nearest neighbor table
   1  0.175  0.175  0.000-   6 1.56   3 1.57   4 1.57
   2  0.508  0.508  0.000-   5 1.56   8 1.57   7 1.57
   3  1.000  1.000  0.000-   5 1.42   7 1.42   1 1.57
   4  0.524  1.000  0.000-   5 1.42   8 1.42   1 1.57
   5  0.683  0.159  0.000-   4 1.42   3 1.42   2 1.56
   6  1.000  0.524  0.000-   8 1.42   7 1.42   1 1.56
   7  0.159  0.683  0.000-   6 1.42   3 1.42   2 1.57
   8  0.683  0.683  0.000-   6 1.42   4 1.42   2 1.57
 
  LATTYP: Found a base centered orthorhombic cell.
 ALAT       =     5.1747137496
 B/A-ratio  =     1.7315605478
 C/A-ratio  =     2.1343039342
  
  Lattice vectors:
  
 A1 = (  -2.5873568748,  -4.4801650874,   0.0000000000)
 A2 = (  -2.5873568748,   4.4801650874,   0.0000000000)
 A3 = (   0.0000000000,   0.0000000000, -11.0444119143)


Analysis of symmetry for initial positions (statically):
=====================================================================
 Subroutine PRICEL returns:
 Original cell was already a primitive cell.
 

 Routine SETGRP: Setting up the symmetry group for a 
 base centered orthorhombic supercell.


 Subroutine GETGRP returns: Found  8 space group operations
 (whereof  2 operations were pure point group operations)
 out of a pool of  8 trial point group operations.


The static configuration has the point symmetry C_1h.
 The point group associated with its full space group is D_2h.


Analysis of symmetry for dynamics (positions and initial velocities):
=====================================================================
 Subroutine PRICEL returns:
 Original cell was already a primitive cell.
 

 Routine SETGRP: Setting up the symmetry group for a 
 base centered orthorhombic supercell.


 Subroutine GETGRP returns: Found  8 space group operations
 (whereof  2 operations were pure point group operations)
 out of a pool of  8 trial point group operations.


The dynamic configuration has the point symmetry C_1h.
 The point group associated with its full space group is D_2h.


 Subroutine INISYM returns: Found  8 space group operations
 (whereof  2 operations are pure point group operations),
 and found     1 'primitive' translations

 
 
 KPOINTS: K-points for BC3                        
  interpolating k-points between supplied coordinates
  k-points in reciprocal lattice
Space group operators:
 irot       det(A)        alpha          n_x          n_y          n_z        tau_x        tau_y        tau_z
    1     1.000000     0.000000     1.000000     0.000000     0.000000     0.000000     0.000000     0.000000
    2    -1.000000   180.000000     0.000000     0.000000     1.000000     0.000000     0.000000     0.000000
    3    -1.000000     0.000000     1.000000     0.000000     0.000000    -0.317502    -0.317451     0.000000
    4     1.000000   180.000000     0.000000     0.000000     1.000000    -0.317502    -0.317451     0.000000
    5     1.000000   180.000000    -0.000000     1.000000     0.000000    -0.476227    -0.000000     0.000000
    6    -1.000000   180.000000    -0.000000     1.000000     0.000000    -0.841274     0.682549     0.000000
    7     1.000000   180.000000     1.000000     0.000000     0.000000    -0.841274     0.682549     0.000000
    8    -1.000000   180.000000     1.000000     0.000000     0.000000    -0.476227    -0.000000     0.000000


--------------------------------------------------------------------------------------------------------




 Dimension of arrays:
   k-points           NKPTS =    120   k-points in BZ     NKDIM =    120   number of bands    NBANDS=     24
   number of dos      NEDOS =    301   number of ions     NIONS =      8
   non local maximal  LDIM  =      4   non local SUM 2l+1 LMDIM =      8
   total plane-waves  NPLWV = 103680
   max r-space proj   IRMAX =      1   max aug-charges    IRDMAX=   6513
   dimension x,y,z NGX =    36 NGY =   36 NGZ =   80
   dimension x,y,z NGXF=    72 NGYF=   72 NGZF=  160
   support grid    NGXF=    72 NGYF=   72 NGZF=  160
   ions per type =               2   6
   NGX,Y,Z   is equivalent  to a cutoff of  11.57, 11.57, 12.04 a.u.
   NGXF,Y,Z  is equivalent  to a cutoff of  23.13, 23.14, 24.08 a.u.

 SYSTEM =  BC3                                     
 POSCAR =  BC3 with lattice parameter 5.174Ang, len

 Startparameter for this run:
   NWRITE =      2    write-flag & timer
   PREC   = accura    normal or accurate (medium, high low for compatibility)
   ISTART =      0    job   : 0-new  1-cont  2-samecut
   ICHARG =     11    charge: 1-file 2-atom 10-const
   ISPIN  =      1    spin polarized calculation?
   LNONCOLLINEAR =      F non collinear calculations
   LSORBIT =      F    spin-orbit coupling
   INIWAV =      1    electr: 0-lowe 1-rand  2-diag
   LASPH  =      F    aspherical Exc in radial PAW
   METAGGA=      F    non-selfconsistent MetaGGA calc.

 Electronic Relaxation 1
   ENCUT  =  450.0 eV  33.07 Ry    5.75 a.u.   8.95  8.95 19.10*2*pi/ulx,y,z
   ENINI  =  450.0     initial cutoff
   ENAUG  =  644.9 eV  augmentation charge cutoff
   NELM   =     60;   NELMIN=  2; NELMDL= -5     # of ELM steps 
   EDIFF  = 0.1E-05   stopping-criterion for ELM
   LREAL  =      F    real-space projection
   NLSPLINE    = F    spline interpolate recip. space projectors
   LCOMPAT=      F    compatible to vasp.4.4
   GGA_COMPAT  = T    GGA compatible to vasp.4.4-vasp.4.6
   LMAXPAW     = -100 max onsite density
   LMAXMIX     =    2 max onsite mixed and CHGCAR
   VOSKOWN=      0    Vosko Wilk Nusair interpolation
   ROPT   =    0.00000   0.00000
 Ionic relaxation
   EDIFFG = -.1E-02   stopping-criterion for IOM
   NSW    =      0    number of steps for IOM
   NBLOCK =      1;   KBLOCK =      1    inner block; outer block 
   IBRION =     -1    ionic relax: 0-MD 1-quasi-New 2-CG
   NFREE  =      0    steps in history (QN), initial steepest desc. (CG)
   ISIF   =      2    stress and relaxation
   IWAVPR =     10    prediction:  0-non 1-charg 2-wave 3-comb
   ISYM   =      2    0-nonsym 1-usesym 2-fastsym
   LCORR  =      T    Harris-Foulkes like correction to forces

   POTIM  = 0.5000    time-step for ionic-motion
   TEIN   =    0.0    initial temperature
   TEBEG  =    0.0;   TEEND  =   0.0 temperature during run
   SMASS  =  -3.00    Nose mass-parameter (am)
   estimated Nose-frequenzy (Omega)   =  0.10E-29 period in steps =****** mass=  -0.612E-27a.u.
   SCALEE = 1.0000    scale energy and forces
   NPACO  =    256;   APACO  = 16.0  distance and # of slots for P.C.
   PSTRESS=    0.0 pullay stress

  Mass of Ions in am
   POMASS =  10.81 12.01
  Ionic Valenz
   ZVAL   =   3.00  4.00
  Atomic Wigner-Seitz radii
   RWIGS  =  -1.00 -1.00
  virtual crystal weights 
   VCA    =   1.00  1.00
   NELECT =      30.0000    total number of electrons
   NUPDOWN=      -1.0000    fix difference up-down

 DOS related values:
   EMIN   =  10.00;   EMAX   =-10.00  energy-range for DOS
   EFERMI =   0.00
   ISMEAR =     0;   SIGMA  =   0.10  broadening in eV -4-tet -1-fermi 0-gaus

 Electronic relaxation 2 (details)
   IALGO  =     38    algorithm
   LDIAG  =      T    sub-space diagonalisation (order eigenvalues)
   LSUBROT=      F    optimize rotation matrix (better conditioning)
   TURBO    =      0    0=normal 1=particle mesh
   IRESTART =      0    0=no restart 2=restart with 2 vectors
   NREBOOT  =      0    no. of reboots
   NMIN     =      0    reboot dimension
   EREF     =   0.00    reference energy to select bands
   IMIX   =      4    mixing-type and parameters
     AMIX     =   0.40;   BMIX     =  1.00
     AMIX_MAG =   1.60;   BMIX_MAG =  1.00
     AMIN     =   0.10
     WC   =   100.;   INIMIX=   1;  MIXPRE=   1;  MAXMIX= -45

 Intra band minimization:
   WEIMIN = 0.0000     energy-eigenvalue tresh-hold
   EBREAK =  0.10E-07  absolut break condition
   DEPER  =   0.30     relativ break condition  

   TIME   =   0.40     timestep for ELM

  volume/ion in A,a.u.               =      32.01       215.99
  Fermi-wavevector in a.u.,A,eV,Ry     =   0.801077  1.513816  8.731190  0.641724
  Thomas-Fermi vector in A             =   1.908495
 
 Write flags
   LWAVE        =      T    write WAVECAR
   LDOWNSAMPLE  =      F    k-point downsampling of WAVECAR
   LCHARG       =      T    write CHGCAR
   LVTOT        =      F    write LOCPOT, total local potential
   LVHAR        =      F    write LOCPOT, Hartree potential only
   LELF         =      F    write electronic localiz. function (ELF)
   LORBIT       =     11    0 simple, 1 ext, 2 COOP (PROOUT), +10 PAW based schemes


 Dipole corrections
   LMONO  =      F    monopole corrections only (constant potential shift)
   LDIPOL =      F    correct potential (dipole corrections)
   IDIPOL =      0    1-x, 2-y, 3-z, 4-all directions 
   EPSILON=  1.0000000 bulk dielectric constant

 Exchange correlation treatment:
   GGA     =    --    GGA type
   LEXCH   =     8    internal setting for exchange type
   VOSKOWN=      0    Vosko Wilk Nusair interpolation
   LHFCALC =     F    Hartree Fock is set to
   LHFONE  =     F    Hartree Fock one center treatment
   AEXX    =    0.0000 exact exchange contribution

 Linear response parameters
   LEPSILON=     F    determine dielectric tensor
   LRPA    =     F    only Hartree local field effects (RPA)
   LNABLA  =     F    use nabla operator in PAW spheres
   LVEL    =     F    velocity operator in full k-point grid
   LINTERFAST=   F  fast interpolation
   KINTER  =     0    interpolate to denser k-point grid
   CSHIFT  =0.1000    complex shift for real part using Kramers Kronig
   OMEGAMAX=  -1.0    maximum frequency
   DEG_THRESHOLD= 0.2000000E-02 threshold for treating states as degnerate
   RTIME   =   -0.100 relaxation time in fs
  (WPLASMAI=    0.000 imaginary part of plasma frequency in eV, 0.658/RTIME)
   DFIELD  = 0.0000000 0.0000000 0.0000000 field for delta impulse in time
 
 Orbital magnetization related:
   ORBITALMAG=     F  switch on orbital magnetization
   LCHIMAG   =     F  perturbation theory with respect to B field
   DQ        =  0.001000  dq finite difference perturbation B field
   LLRAUG    =     F  two centre corrections for induced B field



--------------------------------------------------------------------------------------------------------


 Static calculation
 charge density and potential remain constant during run
 non-spin polarized calculation
 Variant of blocked Davidson
 Davidson routine will perform the subspace rotation
 perform sub-space diagonalisation
    after iterative eigenvector-optimisation
 no mixing
 using additional bands            9
 reciprocal scheme for non local part
 use partial core corrections
 calculate Harris-corrections to forces 
   (improved forces if not selfconsistent)
 use gradient corrections 
 WARNING: stress and forces are not correct
  (second derivative of E(xc) not defined)
 use of overlap-Matrix (Vanderbilt PP)
 Gauss-broadening in eV      SIGMA  =   0.10


--------------------------------------------------------------------------------------------------------


  energy-cutoff  :      450.00
  volume of cell :      256.05
      direct lattice vectors                 reciprocal lattice vectors
     5.174713750  0.000000000  0.000000000     0.193247404 -0.111603030  0.000000000
     2.587356875  4.480165087  0.000000000    -0.000000000  0.223206061  0.000000000
     0.000000000  0.000000000 11.044411914     0.000000000  0.000000000  0.090543526

  length of vectors
     5.174713750  5.173615255 11.044411914     0.223158678  0.223206061  0.090543526


 
 k-points in units of 2pi/SCALE and weight: K-points for BC3                        
  -0.06435139  0.18604225  0.00000000       0.008
  -0.06270135  0.18127194  0.00000000       0.008
  -0.06105131  0.17650162  0.00000000       0.008
  -0.05940128  0.17173131  0.00000000       0.008
  -0.05775124  0.16696099  0.00000000       0.008
  -0.05610121  0.16219068  0.00000000       0.008
  -0.05445117  0.15742037  0.00000000       0.008
  -0.05280114  0.15265005  0.00000000       0.008
  -0.05115110  0.14787974  0.00000000       0.008
  -0.04950107  0.14310942  0.00000000       0.008
  -0.04785103  0.13833911  0.00000000       0.008
  -0.04620099  0.13356880  0.00000000       0.008
  -0.04455096  0.12879848  0.00000000       0.008
  -0.04290092  0.12402817  0.00000000       0.008
  -0.04125089  0.11925785  0.00000000       0.008
  -0.03960085  0.11448754  0.00000000       0.008
  -0.03795082  0.10971723  0.00000000       0.008
  -0.03630078  0.10494691  0.00000000       0.008
  -0.03465075  0.10017660  0.00000000       0.008
  -0.03300071  0.09540628  0.00000000       0.008
  -0.03135068  0.09063597  0.00000000       0.008
  -0.02970064  0.08586565  0.00000000       0.008
  -0.02805060  0.08109534  0.00000000       0.008
  -0.02640057  0.07632503  0.00000000       0.008
  -0.02475053  0.07155471  0.00000000       0.008
  -0.02310050  0.06678440  0.00000000       0.008
  -0.02145046  0.06201408  0.00000000       0.008
  -0.01980043  0.05724377  0.00000000       0.008
  -0.01815039  0.05247346  0.00000000       0.008
  -0.01650036  0.04770314  0.00000000       0.008
  -0.01485032  0.04293283  0.00000000       0.008
  -0.01320028  0.03816251  0.00000000       0.008
  -0.01155025  0.03339220  0.00000000       0.008
  -0.00990021  0.02862188  0.00000000       0.008
  -0.00825018  0.02385157  0.00000000       0.008
  -0.00660014  0.01908126  0.00000000       0.008
  -0.00495011  0.01431094  0.00000000       0.008
  -0.00330007  0.00954063  0.00000000       0.008
  -0.00165004  0.00477031  0.00000000       0.008
  -0.00000000  0.00000000  0.00000000       0.008
   0.00000000  0.00000000  0.00000000       0.008
   0.00247753 -0.00143081  0.00000000       0.008
   0.00495506 -0.00286162  0.00000000       0.008
   0.00743259 -0.00429242  0.00000000       0.008
   0.00991012 -0.00572323  0.00000000       0.008
   0.01238765 -0.00715404  0.00000000       0.008
   0.01486518 -0.00858485  0.00000000       0.008
   0.01734272 -0.01001566  0.00000000       0.008
   0.01982025 -0.01144646  0.00000000       0.008
   0.02229778 -0.01287727  0.00000000       0.008
   0.02477531 -0.01430808  0.00000000       0.008
   0.02725284 -0.01573889  0.00000000       0.008
   0.02973037 -0.01716970  0.00000000       0.008
   0.03220790 -0.01860051  0.00000000       0.008
   0.03468543 -0.02003131  0.00000000       0.008
   0.03716296 -0.02146212  0.00000000       0.008
   0.03964049 -0.02289293  0.00000000       0.008
   0.04211802 -0.02432374  0.00000000       0.008
   0.04459555 -0.02575455  0.00000000       0.008
   0.04707309 -0.02718535  0.00000000       0.008
   0.04955062 -0.02861616  0.00000000       0.008
   0.05202815 -0.03004697  0.00000000       0.008
   0.05450568 -0.03147778  0.00000000       0.008
   0.05698321 -0.03290859  0.00000000       0.008
   0.05946074 -0.03433939  0.00000000       0.008
   0.06193827 -0.03577020  0.00000000       0.008
   0.06441580 -0.03720101  0.00000000       0.008
   0.06689333 -0.03863182  0.00000000       0.008
   0.06937086 -0.04006263  0.00000000       0.008
   0.07184839 -0.04149343  0.00000000       0.008
   0.07432592 -0.04292424  0.00000000       0.008
   0.07680346 -0.04435505  0.00000000       0.008
   0.07928099 -0.04578586  0.00000000       0.008
   0.08175852 -0.04721667  0.00000000       0.008
   0.08423605 -0.04864747  0.00000000       0.008
   0.08671358 -0.05007828  0.00000000       0.008
   0.08919111 -0.05150909  0.00000000       0.008
   0.09166864 -0.05293990  0.00000000       0.008
   0.09414617 -0.05437071  0.00000000       0.008
   0.09662370 -0.05580152  0.00000000       0.008
   0.09662370 -0.05580152  0.00000000       0.008
   0.09249614 -0.04960039  0.00000000       0.008
   0.08836857 -0.04339927  0.00000000       0.008
   0.08424100 -0.03719815  0.00000000       0.008
   0.08011344 -0.03099703  0.00000000       0.008
   0.07598587 -0.02479590  0.00000000       0.008
   0.07185830 -0.01859478  0.00000000       0.008
   0.06773074 -0.01239366  0.00000000       0.008
   0.06360317 -0.00619254  0.00000000       0.008
   0.05947560  0.00000858  0.00000000       0.008
   0.05534804  0.00620971  0.00000000       0.008
   0.05122047  0.01241083  0.00000000       0.008
   0.04709291  0.01861195  0.00000000       0.008
   0.04296534  0.02481307  0.00000000       0.008
   0.03883777  0.03101420  0.00000000       0.008
   0.03471021  0.03721532  0.00000000       0.008
   0.03058264  0.04341644  0.00000000       0.008
   0.02645507  0.04961756  0.00000000       0.008
   0.02232751  0.05581868  0.00000000       0.008
   0.01819994  0.06201981  0.00000000       0.008
   0.01407238  0.06822093  0.00000000       0.008
   0.00994481  0.07442205  0.00000000       0.008
   0.00581724  0.08062317  0.00000000       0.008
   0.00168968  0.08682430  0.00000000       0.008
  -0.00243789  0.09302542  0.00000000       0.008
  -0.00656546  0.09922654  0.00000000       0.008
  -0.01069302  0.10542766  0.00000000       0.008
  -0.01482059  0.11162878  0.00000000       0.008
  -0.01894816  0.11782991  0.00000000       0.008
  -0.02307572  0.12403103  0.00000000       0.008
  -0.02720329  0.13023215  0.00000000       0.008
  -0.03133085  0.13643327  0.00000000       0.008
  -0.03545842  0.14263440  0.00000000       0.008
  -0.03958599  0.14883552  0.00000000       0.008
  -0.04371355  0.15503664  0.00000000       0.008
  -0.04784112  0.16123776  0.00000000       0.008
  -0.05196869  0.16743888  0.00000000       0.008
  -0.05609625  0.17364001  0.00000000       0.008
  -0.06022382  0.17984113  0.00000000       0.008
  -0.06435139  0.18604225  0.00000000       0.008
 
 k-points in reciprocal lattice and weights: K-points for BC3                        
  -0.33300000  0.66700000  0.00000000       0.008
  -0.32446154  0.64989744  0.00000000       0.008
  -0.31592308  0.63279487  0.00000000       0.008
  -0.30738462  0.61569231  0.00000000       0.008
  -0.29884615  0.59858974  0.00000000       0.008
  -0.29030769  0.58148718  0.00000000       0.008
  -0.28176923  0.56438462  0.00000000       0.008
  -0.27323077  0.54728205  0.00000000       0.008
  -0.26469231  0.53017949  0.00000000       0.008
  -0.25615385  0.51307692  0.00000000       0.008
  -0.24761538  0.49597436  0.00000000       0.008
  -0.23907692  0.47887179  0.00000000       0.008
  -0.23053846  0.46176923  0.00000000       0.008
  -0.22200000  0.44466667  0.00000000       0.008
  -0.21346154  0.42756410  0.00000000       0.008
  -0.20492308  0.41046154  0.00000000       0.008
  -0.19638462  0.39335897  0.00000000       0.008
  -0.18784615  0.37625641  0.00000000       0.008
  -0.17930769  0.35915385  0.00000000       0.008
  -0.17076923  0.34205128  0.00000000       0.008
  -0.16223077  0.32494872  0.00000000       0.008
  -0.15369231  0.30784615  0.00000000       0.008
  -0.14515385  0.29074359  0.00000000       0.008
  -0.13661538  0.27364103  0.00000000       0.008
  -0.12807692  0.25653846  0.00000000       0.008
  -0.11953846  0.23943590  0.00000000       0.008
  -0.11100000  0.22233333  0.00000000       0.008
  -0.10246154  0.20523077  0.00000000       0.008
  -0.09392308  0.18812821  0.00000000       0.008
  -0.08538462  0.17102564  0.00000000       0.008
  -0.07684615  0.15392308  0.00000000       0.008
  -0.06830769  0.13682051  0.00000000       0.008
  -0.05976923  0.11971795  0.00000000       0.008
  -0.05123077  0.10261538  0.00000000       0.008
  -0.04269231  0.08551282  0.00000000       0.008
  -0.03415385  0.06841026  0.00000000       0.008
  -0.02561538  0.05130769  0.00000000       0.008
  -0.01707692  0.03420513  0.00000000       0.008
  -0.00853846  0.01710256  0.00000000       0.008
  -0.00000000  0.00000000  0.00000000       0.008
   0.00000000  0.00000000  0.00000000       0.008
   0.01282051  0.00000000  0.00000000       0.008
   0.02564103  0.00000000  0.00000000       0.008
   0.03846154  0.00000000  0.00000000       0.008
   0.05128205  0.00000000  0.00000000       0.008
   0.06410256  0.00000000  0.00000000       0.008
   0.07692308  0.00000000  0.00000000       0.008
   0.08974359  0.00000000  0.00000000       0.008
   0.10256410  0.00000000  0.00000000       0.008
   0.11538462  0.00000000  0.00000000       0.008
   0.12820513  0.00000000  0.00000000       0.008
   0.14102564  0.00000000  0.00000000       0.008
   0.15384615  0.00000000  0.00000000       0.008
   0.16666667  0.00000000  0.00000000       0.008
   0.17948718  0.00000000  0.00000000       0.008
   0.19230769  0.00000000  0.00000000       0.008
   0.20512821  0.00000000  0.00000000       0.008
   0.21794872  0.00000000  0.00000000       0.008
   0.23076923  0.00000000  0.00000000       0.008
   0.24358974  0.00000000  0.00000000       0.008
   0.25641026  0.00000000  0.00000000       0.008
   0.26923077  0.00000000  0.00000000       0.008
   0.28205128  0.00000000  0.00000000       0.008
   0.29487179  0.00000000  0.00000000       0.008
   0.30769231  0.00000000  0.00000000       0.008
   0.32051282  0.00000000  0.00000000       0.008
   0.33333333  0.00000000  0.00000000       0.008
   0.34615385  0.00000000  0.00000000       0.008
   0.35897436  0.00000000  0.00000000       0.008
   0.37179487  0.00000000  0.00000000       0.008
   0.38461538  0.00000000  0.00000000       0.008
   0.39743590  0.00000000  0.00000000       0.008
   0.41025641  0.00000000  0.00000000       0.008
   0.42307692  0.00000000  0.00000000       0.008
   0.43589744  0.00000000  0.00000000       0.008
   0.44871795  0.00000000  0.00000000       0.008
   0.46153846  0.00000000  0.00000000       0.008
   0.47435897  0.00000000  0.00000000       0.008
   0.48717949  0.00000000  0.00000000       0.008
   0.50000000  0.00000000  0.00000000       0.008
   0.50000000  0.00000000  0.00000000       0.008
   0.47864103  0.01710256  0.00000000       0.008
   0.45728205  0.03420513  0.00000000       0.008
   0.43592308  0.05130769  0.00000000       0.008
   0.41456410  0.06841026  0.00000000       0.008
   0.39320513  0.08551282  0.00000000       0.008
   0.37184615  0.10261538  0.00000000       0.008
   0.35048718  0.11971795  0.00000000       0.008
   0.32912821  0.13682051  0.00000000       0.008
   0.30776923  0.15392308  0.00000000       0.008
   0.28641026  0.17102564  0.00000000       0.008
   0.26505128  0.18812821  0.00000000       0.008
   0.24369231  0.20523077  0.00000000       0.008
   0.22233333  0.22233333  0.00000000       0.008
   0.20097436  0.23943590  0.00000000       0.008
   0.17961538  0.25653846  0.00000000       0.008
   0.15825641  0.27364103  0.00000000       0.008
   0.13689744  0.29074359  0.00000000       0.008
   0.11553846  0.30784615  0.00000000       0.008
   0.09417949  0.32494872  0.00000000       0.008
   0.07282051  0.34205128  0.00000000       0.008
   0.05146154  0.35915385  0.00000000       0.008
   0.03010256  0.37625641  0.00000000       0.008
   0.00874359  0.39335897  0.00000000       0.008
  -0.01261538  0.41046154  0.00000000       0.008
  -0.03397436  0.42756410  0.00000000       0.008
  -0.05533333  0.44466667  0.00000000       0.008
  -0.07669231  0.46176923  0.00000000       0.008
  -0.09805128  0.47887179  0.00000000       0.008
  -0.11941026  0.49597436  0.00000000       0.008
  -0.14076923  0.51307692  0.00000000       0.008
  -0.16212821  0.53017949  0.00000000       0.008
  -0.18348718  0.54728205  0.00000000       0.008
  -0.20484615  0.56438462  0.00000000       0.008
  -0.22620513  0.58148718  0.00000000       0.008
  -0.24756410  0.59858974  0.00000000       0.008
  -0.26892308  0.61569231  0.00000000       0.008
  -0.29028205  0.63279487  0.00000000       0.008
  -0.31164103  0.64989744  0.00000000       0.008
  -0.33300000  0.66700000  0.00000000       0.008
 
 position of ions in fractional coordinates (direct lattice) 
   0.17460303  0.17456665  0.00000000
   0.50789541  0.50798189  0.00000000
   0.99988063  0.99998941  0.00000000
   0.52390268  0.99998941  0.00000000
   0.68254532  0.15868208  0.00000000
   0.99995312  0.52386646  0.00000000
   0.15859576  0.68255913  0.00000000
   0.68261781  0.68255913  0.00000000
 
 position of ions in cartesian coordinates  (Angst):
   1.35518692  0.78208741  0.00000000
   3.94254380  2.27584272  0.00000000
   7.76142549  4.48011762  0.00000000
   5.29837586  4.48011762  0.00000000
   3.94254380  0.71092190  0.00000000
   6.52990067  2.34700823  0.00000000
   2.58671174  3.05797760  0.00000000
   5.29837586  3.05797760  0.00000000
 


--------------------------------------------------------------------------------------------------------


 k-point  1 :  -0.3330 0.6670 0.0000  plane waves:    5532
 k-point  2 :  -0.3245 0.6499 0.0000  plane waves:    5537
 k-point  3 :  -0.3159 0.6328 0.0000  plane waves:    5537
 k-point  4 :  -0.3074 0.6157 0.0000  plane waves:    5541
 k-point  5 :  -0.2988 0.5986 0.0000  plane waves:    5543
 k-point  6 :  -0.2903 0.5815 0.0000  plane waves:    5549
 k-point  7 :  -0.2818 0.5644 0.0000  plane waves:    5555
 k-point  8 :  -0.2732 0.5473 0.0000  plane waves:    5567
 k-point  9 :  -0.2647 0.5302 0.0000  plane waves:    5575
 k-point 10 :  -0.2562 0.5131 0.0000  plane waves:    5579
 k-point 11 :  -0.2476 0.4960 0.0000  plane waves:    5579
 k-point 12 :  -0.2391 0.4789 0.0000  plane waves:    5579
 k-point 13 :  -0.2305 0.4618 0.0000  plane waves:    5580
 k-point 14 :  -0.2220 0.4447 0.0000  plane waves:    5580
 k-point 15 :  -0.2135 0.4276 0.0000  plane waves:    5576
 k-point 16 :  -0.2049 0.4105 0.0000  plane waves:    5578
 k-point 17 :  -0.1964 0.3934 0.0000  plane waves:    5577
 k-point 18 :  -0.1878 0.3763 0.0000  plane waves:    5577
 k-point 19 :  -0.1793 0.3592 0.0000  plane waves:    5575
 k-point 20 :  -0.1708 0.3421 0.0000  plane waves:    5573
 k-point 21 :  -0.1622 0.3249 0.0000  plane waves:    5576
 k-point 22 :  -0.1537 0.3078 0.0000  plane waves:    5562
 k-point 23 :  -0.1452 0.2907 0.0000  plane waves:    5552
 k-point 24 :  -0.1366 0.2736 0.0000  plane waves:    5550
 k-point 25 :  -0.1281 0.2565 0.0000  plane waves:    5544
 k-point 26 :  -0.1195 0.2394 0.0000  plane waves:    5547
 k-point 27 :  -0.1110 0.2223 0.0000  plane waves:    5541
 k-point 28 :  -0.1025 0.2052 0.0000  plane waves:    5542
 k-point 29 :  -0.0939 0.1881 0.0000  plane waves:    5537
 k-point 30 :  -0.0854 0.1710 0.0000  plane waves:    5528
 k-point 31 :  -0.0768 0.1539 0.0000  plane waves:    5522
 k-point 32 :  -0.0683 0.1368 0.0000  plane waves:    5524
 k-point 33 :  -0.0598 0.1197 0.0000  plane waves:    5522
 k-point 34 :  -0.0512 0.1026 0.0000  plane waves:    5521
 k-point 35 :  -0.0427 0.0855 0.0000  plane waves:    5521
 k-point 36 :  -0.0342 0.0684 0.0000  plane waves:    5522
 k-point 37 :  -0.0256 0.0513 0.0000  plane waves:    5511
 k-point 38 :  -0.0171 0.0342 0.0000  plane waves:    5509
 k-point 39 :  -0.0085 0.0171 0.0000  plane waves:    5521
 k-point 40 :  -0.0000 0.0000 0.0000  plane waves:    5521
 k-point 41 :   0.0000 0.0000 0.0000  plane waves:    5521
 k-point 42 :   0.0128 0.0000 0.0000  plane waves:    5517
 k-point 43 :   0.0256 0.0000 0.0000  plane waves:    5525
 k-point 44 :   0.0385 0.0000 0.0000  plane waves:    5517
 k-point 45 :   0.0513 0.0000 0.0000  plane waves:    5501
 k-point 46 :   0.0641 0.0000 0.0000  plane waves:    5507
 k-point 47 :   0.0769 0.0000 0.0000  plane waves:    5513
 k-point 48 :   0.0897 0.0000 0.0000  plane waves:    5513
 k-point 49 :   0.1026 0.0000 0.0000  plane waves:    5511
 k-point 50 :   0.1154 0.0000 0.0000  plane waves:    5517
 k-point 51 :   0.1282 0.0000 0.0000  plane waves:    5513
 k-point 52 :   0.1410 0.0000 0.0000  plane waves:    5517
 k-point 53 :   0.1538 0.0000 0.0000  plane waves:    5513
 k-point 54 :   0.1667 0.0000 0.0000  plane waves:    5515
 k-point 55 :   0.1795 0.0000 0.0000  plane waves:    5521
 k-point 56 :   0.1923 0.0000 0.0000  plane waves:    5523
 k-point 57 :   0.2051 0.0000 0.0000  plane waves:    5531
 k-point 58 :   0.2179 0.0000 0.0000  plane waves:    5533
 k-point 59 :   0.2308 0.0000 0.0000  plane waves:    5533
 k-point 60 :   0.2436 0.0000 0.0000  plane waves:    5531
 k-point 61 :   0.2564 0.0000 0.0000  plane waves:    5534
 k-point 62 :   0.2692 0.0000 0.0000  plane waves:    5536
 k-point 63 :   0.2821 0.0000 0.0000  plane waves:    5526
 k-point 64 :   0.2949 0.0000 0.0000  plane waves:    5526
 k-point 65 :   0.3077 0.0000 0.0000  plane waves:    5538
 k-point 66 :   0.3205 0.0000 0.0000  plane waves:    5536
 k-point 67 :   0.3333 0.0000 0.0000  plane waves:    5532
 k-point 68 :   0.3462 0.0000 0.0000  plane waves:    5536
 k-point 69 :   0.3590 0.0000 0.0000  plane waves:    5538
 k-point 70 :   0.3718 0.0000 0.0000  plane waves:    5542
 k-point 71 :   0.3846 0.0000 0.0000  plane waves:    5540
 k-point 72 :   0.3974 0.0000 0.0000  plane waves:    5544
 k-point 73 :   0.4103 0.0000 0.0000  plane waves:    5542
 k-point 74 :   0.4231 0.0000 0.0000  plane waves:    5544
 k-point 75 :   0.4359 0.0000 0.0000  plane waves:    5548
 k-point 76 :   0.4487 0.0000 0.0000  plane waves:    5542
 k-point 77 :   0.4615 0.0000 0.0000  plane waves:    5542
 k-point 78 :   0.4744 0.0000 0.0000  plane waves:    5543
 k-point 79 :   0.4872 0.0000 0.0000  plane waves:    5532
 k-point 80 :   0.5000 0.0000 0.0000  plane waves:    5536
 k-point 81 :   0.5000 0.0000 0.0000  plane waves:    5536
 k-point 82 :   0.4786 0.0171 0.0000  plane waves:    5549
 k-point 83 :   0.4573 0.0342 0.0000  plane waves:    5544
 k-point 84 :   0.4359 0.0513 0.0000  plane waves:    5543
 k-point 85 :   0.4146 0.0684 0.0000  plane waves:    5543
 k-point 86 :   0.3932 0.0855 0.0000  plane waves:    5547
 k-point 87 :   0.3718 0.1026 0.0000  plane waves:    5527
 k-point 88 :   0.3505 0.1197 0.0000  plane waves:    5547
 k-point 89 :   0.3291 0.1368 0.0000  plane waves:    5547
 k-point 90 :   0.3078 0.1539 0.0000  plane waves:    5545
 k-point 91 :   0.2864 0.1710 0.0000  plane waves:    5542
 k-point 92 :   0.2651 0.1881 0.0000  plane waves:    5533
 k-point 93 :   0.2437 0.2052 0.0000  plane waves:    5528
 k-point 94 :   0.2223 0.2223 0.0000  plane waves:    5529
 k-point 95 :   0.2010 0.2394 0.0000  plane waves:    5525
 k-point 96 :   0.1796 0.2565 0.0000  plane waves:    5534
 k-point 97 :   0.1583 0.2736 0.0000  plane waves:    5540
 k-point 98 :   0.1369 0.2907 0.0000  plane waves:    5548
 k-point 99 :   0.1155 0.3078 0.0000  plane waves:    5539
 k-point ** :   0.0942 0.3249 0.0000  plane waves:    5531
 k-point ** :   0.0728 0.3421 0.0000  plane waves:    5533
 k-point ** :   0.0515 0.3592 0.0000  plane waves:    5541
 k-point ** :   0.0301 0.3763 0.0000  plane waves:    5539
 k-point ** :   0.0087 0.3934 0.0000  plane waves:    5544
 k-point ** :  -0.0126 0.4105 0.0000  plane waves:    5548
 k-point ** :  -0.0340 0.4276 0.0000  plane waves:    5546
 k-point ** :  -0.0553 0.4447 0.0000  plane waves:    5553
 k-point ** :  -0.0767 0.4618 0.0000  plane waves:    5559
 k-point ** :  -0.0981 0.4789 0.0000  plane waves:    5569
 k-point ** :  -0.1194 0.4960 0.0000  plane waves:    5558
 k-point ** :  -0.1408 0.5131 0.0000  plane waves:    5560
 k-point ** :  -0.1621 0.5302 0.0000  plane waves:    5570
 k-point ** :  -0.1835 0.5473 0.0000  plane waves:    5569
 k-point ** :  -0.2048 0.5644 0.0000  plane waves:    5565
 k-point ** :  -0.2262 0.5815 0.0000  plane waves:    5561
 k-point ** :  -0.2476 0.5986 0.0000  plane waves:    5562
 k-point ** :  -0.2689 0.6157 0.0000  plane waves:    5543
 k-point ** :  -0.2903 0.6328 0.0000  plane waves:    5536
 k-point ** :  -0.3116 0.6499 0.0000  plane waves:    5537
 k-point ** :  -0.3330 0.6670 0.0000  plane waves:    5532

 maximum and minimum number of plane-waves per node :      5580     5501

 maximum number of plane-waves:      5580
 maximum index in each direction: 
   IXMAX=    9   IYMAX=    8   IZMAX=   19
   IXMIN=   -9   IYMIN=   -9   IZMIN=  -19


 serial   3D FFT for wavefunctions
 parallel 3D FFT for charge:
    minimum data exchange during FFTs selected (reduces bandwidth)


 total amount of memory used by VASP MPI-rank0   148993. kBytes
=======================================================================

   base      :      30000. kBytes
   nonl-proj :      86423. kBytes
   fftplans  :       2770. kBytes
   grid      :       8073. kBytes
   one-center:         24. kBytes
   wavefun   :      21703. kBytes
 
     INWAV:  cpu time    0.0000: real time    0.0000
 initial charge density was supplied:
 number of electron      30.0000001 magnetization 
 keeping initial charge density in first step


--------------------------------------------------------------------------------------------------------


 Maximum index for augmentation-charges          427 (set IRDMAX)


--------------------------------------------------------------------------------------------------------


 First call to EWALD:  gamma=   0.279
 Maximum number of real-space cells 4x 4x 2
 Maximum number of reciprocal cells 2x 2x 4

    FEWALD:  cpu time    0.0019: real time    0.0021


--------------------------------------- Iteration      1(   1)  ---------------------------------------


    POTLOK:  cpu time    0.0803: real time    0.0811
    SETDIJ:  cpu time    0.0030: real time    0.0030
     EDDAV:  cpu time    9.6333: real time    9.6402
       DOS:  cpu time    0.0018: real time    0.0018
    --------------------------------------------
      LOOP:  cpu time    9.7184: real time    9.7260

 eigenvalue-minimisations  :  5760
 total energy-change (2. order) : 0.1393366E+03  (-0.1051547E+04)
 number of electron      30.0000001 magnetization 
 augmentation part       30.0000001 magnetization 

 Free energy of the ion-electron system (eV)
  ---------------------------------------------------
  alpha Z        PSCENC =        19.81068387
  Ewald energy   TEWEN  =      1439.15139366
  -Hartree energ DENC   =     -2358.51759210
  -exchange      EXHF   =         0.00000000
  -V(xc)+E(xc)   XCENC  =        96.02370229
  PAW double counting   =      2894.69470930    -2897.22195439
  entropy T*S    EENTRO =        -0.01280848
  eigenvalues    EBANDS =       -79.79547141
  atomic energy  EATOM  =      1025.20389953
  Solvation  Ediel_sol  =         0.00000000
  ---------------------------------------------------
  free energy    TOTEN  =       139.33656228 eV

  energy without entropy =      139.34937076  energy(sigma->0) =      139.34296652


--------------------------------------------------------------------------------------------------------




--------------------------------------- Iteration      1(   2)  ---------------------------------------


     EDDAV:  cpu time   13.2379: real time   13.2395
       DOS:  cpu time    0.0017: real time    0.0017
    --------------------------------------------
      LOOP:  cpu time   13.2396: real time   13.2412

 eigenvalue-minimisations  :  8772
 total energy-change (2. order) :-0.1856517E+03  (-0.1703771E+03)
 number of electron      30.0000001 magnetization 
 augmentation part       30.0000001 magnetization 

 Free energy of the ion-electron system (eV)
  ---------------------------------------------------
  alpha Z        PSCENC =        19.81068387
  Ewald energy   TEWEN  =      1439.15139366
  -Hartree energ DENC   =     -2358.51759210
  -exchange      EXHF   =         0.00000000
  -V(xc)+E(xc)   XCENC  =        96.02370229
  PAW double counting   =      2894.69470930    -2897.22195439
  entropy T*S    EENTRO =        -0.00808996
  eigenvalues    EBANDS =      -265.45187500
  atomic energy  EATOM  =      1025.20389953
  Solvation  Ediel_sol  =         0.00000000
  ---------------------------------------------------
  free energy    TOTEN  =       -46.31512278 eV

  energy without entropy =      -46.30703283  energy(sigma->0) =      -46.31107781


--------------------------------------------------------------------------------------------------------




--------------------------------------- Iteration      1(   3)  ---------------------------------------


     EDDAV:  cpu time   10.9500: real time   10.9560
       DOS:  cpu time    0.0013: real time    0.0013
    --------------------------------------------
      LOOP:  cpu time   10.9513: real time   10.9574

 eigenvalue-minimisations  :  6876
 total energy-change (2. order) :-0.1958870E+02  (-0.1939608E+02)
 number of electron      30.0000001 magnetization 
 augmentation part       30.0000001 magnetization 

 Free energy of the ion-electron system (eV)
  ---------------------------------------------------
  alpha Z        PSCENC =        19.81068387
  Ewald energy   TEWEN  =      1439.15139366
  -Hartree energ DENC   =     -2358.51759210
  -exchange      EXHF   =         0.00000000
  -V(xc)+E(xc)   XCENC  =        96.02370229
  PAW double counting   =      2894.69470930    -2897.22195439
  entropy T*S    EENTRO =        -0.00000021
  eigenvalues    EBANDS =      -285.04866437
  atomic energy  EATOM  =      1025.20389953
  Solvation  Ediel_sol  =         0.00000000
  ---------------------------------------------------
  free energy    TOTEN  =       -65.90382241 eV

  energy without entropy =      -65.90382220  energy(sigma->0) =      -65.90382230


--------------------------------------------------------------------------------------------------------




--------------------------------------- Iteration      1(   4)  ---------------------------------------


     EDDAV:  cpu time   12.2836: real time   12.2858
       DOS:  cpu time    0.0013: real time    0.0013
    --------------------------------------------
      LOOP:  cpu time   12.2850: real time   12.2871

 eigenvalue-minimisations  :  7980
 total energy-change (2. order) :-0.3557784E+00  (-0.3554614E+00)
 number of electron      30.0000001 magnetization 
 augmentation part       30.0000001 magnetization 

 Free energy of the ion-electron system (eV)
  ---------------------------------------------------
  alpha Z        PSCENC =        19.81068387
  Ewald energy   TEWEN  =      1439.15139366
  -Hartree energ DENC   =     -2358.51759210
  -exchange      EXHF   =         0.00000000
  -V(xc)+E(xc)   XCENC  =        96.02370229
  PAW double counting   =      2894.69470930    -2897.22195439
  entropy T*S    EENTRO =        -0.00000021
  eigenvalues    EBANDS =      -285.40444281
  atomic energy  EATOM  =      1025.20389953
  Solvation  Ediel_sol  =         0.00000000
  ---------------------------------------------------
  free energy    TOTEN  =       -66.25960084 eV

  energy without entropy =      -66.25960064  energy(sigma->0) =      -66.25960074


--------------------------------------------------------------------------------------------------------




--------------------------------------- Iteration      1(   5)  ---------------------------------------


     EDDAV:  cpu time   11.6903: real time   11.6918
       DOS:  cpu time    0.0013: real time    0.0013
    --------------------------------------------
      LOOP:  cpu time   11.6915: real time   11.6930

 eigenvalue-minimisations  :  7512
 total energy-change (2. order) :-0.8800755E-02  (-0.8799309E-02)
 number of electron      30.0000001 magnetization 
 augmentation part       30.0000001 magnetization 

 Free energy of the ion-electron system (eV)
  ---------------------------------------------------
  alpha Z        PSCENC =        19.81068387
  Ewald energy   TEWEN  =      1439.15139366
  -Hartree energ DENC   =     -2358.51759210
  -exchange      EXHF   =         0.00000000
  -V(xc)+E(xc)   XCENC  =        96.02370229
  PAW double counting   =      2894.69470930    -2897.22195439
  entropy T*S    EENTRO =        -0.00000021
  eigenvalues    EBANDS =      -285.41324356
  atomic energy  EATOM  =      1025.20389953
  Solvation  Ediel_sol  =         0.00000000
  ---------------------------------------------------
  free energy    TOTEN  =       -66.26840160 eV

  energy without entropy =      -66.26840139  energy(sigma->0) =      -66.26840149


--------------------------------------------------------------------------------------------------------




--------------------------------------- Iteration      1(   6)  ---------------------------------------


     EDDAV:  cpu time   13.4965: real time   13.4998
       DOS:  cpu time    0.0012: real time    0.0012
    --------------------------------------------
      LOOP:  cpu time   13.4977: real time   13.5010

 eigenvalue-minimisations  :  9024
 total energy-change (2. order) :-0.4072269E-03  (-0.4072216E-03)
 number of electron      30.0000001 magnetization 
 augmentation part       30.0000001 magnetization 

 Free energy of the ion-electron system (eV)
  ---------------------------------------------------
  alpha Z        PSCENC =        19.81068387
  Ewald energy   TEWEN  =      1439.15139366
  -Hartree energ DENC   =     -2358.51759210
  -exchange      EXHF   =         0.00000000
  -V(xc)+E(xc)   XCENC  =        96.02370229
  PAW double counting   =      2894.69470930    -2897.22195439
  entropy T*S    EENTRO =        -0.00000021
  eigenvalues    EBANDS =      -285.41365079
  atomic energy  EATOM  =      1025.20389953
  Solvation  Ediel_sol  =         0.00000000
  ---------------------------------------------------
  free energy    TOTEN  =       -66.26880882 eV

  energy without entropy =      -66.26880862  energy(sigma->0) =      -66.26880872


--------------------------------------------------------------------------------------------------------




--------------------------------------- Iteration      1(   7)  ---------------------------------------


     EDDAV:  cpu time   12.4621: real time   12.4647
       DOS:  cpu time    0.0014: real time    0.0014
    --------------------------------------------
      LOOP:  cpu time   12.4635: real time   12.4660

 eigenvalue-minimisations  :  8160
 total energy-change (2. order) :-0.8403108E-05  (-0.8402843E-05)
 number of electron      30.0000001 magnetization 
 augmentation part       30.0000001 magnetization 

 Free energy of the ion-electron system (eV)
  ---------------------------------------------------
  alpha Z        PSCENC =        19.81068387
  Ewald energy   TEWEN  =      1439.15139366
  -Hartree energ DENC   =     -2358.51759210
  -exchange      EXHF   =         0.00000000
  -V(xc)+E(xc)   XCENC  =        96.02370229
  PAW double counting   =      2894.69470930    -2897.22195439
  entropy T*S    EENTRO =        -0.00000021
  eigenvalues    EBANDS =      -285.41365919
  atomic energy  EATOM  =      1025.20389953
  Solvation  Ediel_sol  =         0.00000000
  ---------------------------------------------------
  free energy    TOTEN  =       -66.26881723 eV

  energy without entropy =      -66.26881702  energy(sigma->0) =      -66.26881712


--------------------------------------------------------------------------------------------------------




--------------------------------------- Iteration      1(   8)  ---------------------------------------


     EDDAV:  cpu time   11.9967: real time   12.0074
       DOS:  cpu time    0.0012: real time    0.0012
    --------------------------------------------
      LOOP:  cpu time   11.9980: real time   12.0086

 eigenvalue-minimisations  :  7692
 total energy-change (2. order) :-0.2656718E-06  (-0.2657344E-06)
 number of electron      30.0000001 magnetization 
 augmentation part       30.0000001 magnetization 

 Free energy of the ion-electron system (eV)
  ---------------------------------------------------
  alpha Z        PSCENC =        19.81068387
  Ewald energy   TEWEN  =      1439.15139366
  -Hartree energ DENC   =     -2358.51759210
  -exchange      EXHF   =         0.00000000
  -V(xc)+E(xc)   XCENC  =        96.02370229
  PAW double counting   =      2894.69470930    -2897.22195439
  entropy T*S    EENTRO =        -0.00000021
  eigenvalues    EBANDS =      -285.41365946
  atomic energy  EATOM  =      1025.20389953
  Solvation  Ediel_sol  =         0.00000000
  ---------------------------------------------------
  free energy    TOTEN  =       -66.26881749 eV

  energy without entropy =      -66.26881729  energy(sigma->0) =      -66.26881739


--------------------------------------------------------------------------------------------------------




 average (electrostatic) potential at core
  the test charge radii are     0.7672  0.6991
  (the norm of the test charge is              1.0000)
       1 -33.9545       2 -33.9545       3 -56.4557       4 -56.4558       5 -56.4549
       6 -56.4550       7 -56.4557       8 -56.4558
 
 
 
 E-fermi :  -2.8486     XC(G=0):  -3.7713     alpha+bet : -3.2155


 k-point     1 :      -0.3330    0.6670    0.0000
  band No.  band energies     occupation 
      1     -18.8723      2.00000
      2     -16.5867      2.00000
      3     -15.7319      2.00000
      4     -13.4389      2.00000
      5     -11.8194      2.00000
      6     -10.2602      2.00000
      7      -8.7925      2.00000
      8      -8.7222      2.00000
      9      -7.4276      2.00000
     10      -7.2306      2.00000
     11      -5.6492      2.00000
     12      -5.3166      2.00000
     13      -5.1011      2.00000
     14      -4.0679      2.00000
     15      -4.0125      2.00000
     16      -2.3755      0.00000
     17       1.0809      0.00000
     18       1.8426      0.00000
     19       2.2004      0.00000
     20       3.3697      0.00000
     21       3.9318      0.00000
     22       4.5047      0.00000
     23       4.6352      0.00000
     24       5.9423      0.00000

 k-point     2 :      -0.3245    0.6499    0.0000
  band No.  band energies     occupation 
      1     -18.8631      2.00000
      2     -16.6035      2.00000
      3     -15.7462      2.00000
      4     -13.4310      2.00000
      5     -11.8091      2.00000
      6     -10.2125      2.00000
      7      -8.8251      2.00000
      8      -8.6799      2.00000
      9      -7.4101      2.00000
     10      -7.2499      2.00000
     11      -5.6553      2.00000
     12      -5.3410      2.00000
     13      -5.1430      2.00000
     14      -4.0893      2.00000
     15      -4.0371      2.00000
     16      -2.3657      0.00000
     17       1.0462      0.00000
     18       1.9112      0.00000
     19       2.2252      0.00000
     20       3.4064      0.00000
     21       3.9709      0.00000
     22       4.5295      0.00000
     23       4.5977      0.00000
     24       5.9058      0.00000

 k-point     3 :      -0.3159    0.6328    0.0000
  band No.  band energies     occupation 
      1     -18.8511      2.00000
      2     -16.6184      2.00000
      3     -15.7790      2.00000
      4     -13.3967      2.00000
      5     -11.8214      2.00000
      6     -10.1382      2.00000
      7      -8.8767      2.00000
      8      -8.6276      2.00000
      9      -7.3872      2.00000
     10      -7.2501      2.00000
     11      -5.6846      2.00000
     12      -5.3618      2.00000
     13      -5.1843      2.00000
     14      -4.1453      2.00000
     15      -4.0800      2.00000
     16      -2.3213      0.00000
     17       0.9455      0.00000
     18       2.0593      0.00000
     19       2.2575      0.00000
     20       3.4473      0.00000
     21       4.0116      0.00000
     22       4.5620      0.00000
     23       4.5677      0.00000
     24       5.8751      0.00000

 k-point     4 :      -0.3074    0.6157    0.0000
  band No.  band energies     occupation 
      1     -18.8364      2.00000
      2     -16.6313      2.00000
      3     -15.8279      2.00000
      4     -13.3385      2.00000
      5     -11.8522      2.00000
      6     -10.0421      2.00000
      7      -8.9435      2.00000
      8      -8.5668      2.00000
      9      -7.3591      2.00000
     10      -7.2334      2.00000
     11      -5.7359      2.00000
     12      -5.3790      2.00000
     13      -5.2250      2.00000
     14      -4.2300      2.00000
     15      -4.1405      2.00000
     16      -2.2483      0.00000
     17       0.8158      0.00000
     18       2.2491      0.00000
     19       2.2975      0.00000
     20       3.4931      0.00000
     21       4.0533      0.00000
     22       4.5453      0.00000
     23       4.6023      0.00000
     24       5.8500      0.00000

 k-point     5 :      -0.2988    0.5986    0.0000
  band No.  band energies     occupation 
      1     -18.8193      2.00000
      2     -16.6424      2.00000
      3     -15.8894      2.00000
      4     -13.2604      2.00000
      5     -11.8960      2.00000
      6      -9.9311      2.00000
      7      -9.0203      2.00000
      8      -8.4981      2.00000
      9      -7.3260      2.00000
     10      -7.2033      2.00000
     11      -5.8065      2.00000
     12      -5.3930      2.00000
     13      -5.2658      2.00000
     14      -4.3352      2.00000
     15      -4.2172      2.00000
     16      -2.1547      0.00000
     17       0.6773      0.00000
     18       2.3450      0.00000
     19       2.4597      0.00000
     20       3.5441      0.00000
     21       4.0953      0.00000
     22       4.5303      0.00000
     23       4.6501      0.00000
     24       5.8471      0.00000

 k-point     6 :      -0.2903    0.5815    0.0000
  band No.  band energies     occupation 
      1     -18.8000      2.00000
      2     -16.6519      2.00000
      3     -15.9594      2.00000
      4     -13.1672      2.00000
      5     -11.9473      2.00000
      6      -9.8140      2.00000
      7      -9.1000      2.00000
      8      -8.4217      2.00000
      9      -7.2881      2.00000
     10      -7.1648      2.00000
     11      -5.8921      2.00000
     12      -5.4044      2.00000
     13      -5.3083      2.00000
     14      -4.4530      2.00000
     15      -4.3077      2.00000
     16      -2.0485      0.00000
     17       0.5396      0.00000
     18       2.4000      0.00000
     19       2.6805      0.00000
     20       3.6008      0.00000
     21       4.1378      0.00000
     22       4.5228      0.00000
     23       4.7056      0.00000
     24       5.6810      0.00000

 k-point     7 :      -0.2818    0.5644    0.0000
  band No.  band energies     occupation 
      1     -18.7789      2.00000
      2     -16.6605      2.00000
      3     -16.0336      2.00000
      4     -13.0644      2.00000
      5     -12.0005      2.00000
      6      -9.7049      2.00000
      7      -9.1694      2.00000
      8      -8.3376      2.00000
      9      -7.2458      2.00000
     10      -7.1238      2.00000
     11      -5.9874      2.00000
     12      -5.4145      2.00000
     13      -5.3541      2.00000
     14      -4.5761      2.00000
     15      -4.4089      2.00000
     16      -1.9367      0.00000
     17       0.4081      0.00000
     18       2.4625      0.00000
     19       2.9048      0.00000
     20       3.6639      0.00000
     21       4.1813      0.00000
     22       4.5227      0.00000
     23       4.7685      0.00000
     24       5.4432      0.00000

 k-point     8 :      -0.2732    0.5473    0.0000
  band No.  band energies     occupation 
      1     -18.7565      2.00000
      2     -16.6693      2.00000
      3     -16.1075      2.00000
      4     -12.9588      2.00000
      5     -12.0498      2.00000
      6      -9.6317      2.00000
      7      -9.2014      2.00000
      8      -8.2461      2.00000
      9      -7.1994      2.00000
     10      -7.0877      2.00000
     11      -6.0857      2.00000
     12      -5.4253      2.00000
     13      -5.4044      2.00000
     14      -4.6981      2.00000
     15      -4.5168      2.00000
     16      -1.8259      0.00000
     17       0.2870      0.00000
     18       2.5325      0.00000
     19       3.1255      0.00000
     20       3.7347      0.00000
     21       4.2275      0.00000
     22       4.5300      0.00000
     23       4.8388      0.00000
     24       5.2078      0.00000

 k-point     9 :      -0.2647    0.5302    0.0000
  band No.  band energies     occupation 
      1     -18.7334      2.00000
      2     -16.6799      2.00000
      3     -16.1768      2.00000
      4     -12.8590      2.00000
      5     -12.0874      2.00000
      6      -9.6278      2.00000
      7      -9.1631      2.00000
      8      -8.1477      2.00000
      9      -7.1496      2.00000
     10      -7.0655      2.00000
     11      -6.1783      2.00000
     12      -5.4606      2.00000
     13      -5.4405      2.00000
     14      -4.8116      2.00000
     15      -4.6262      2.00000
     16      -1.7220      0.00000
     17       0.1801      0.00000
     18       2.6100      0.00000
     19       3.3326      0.00000
     20       3.8169      0.00000
     21       4.2800      0.00000
     22       4.5446      0.00000
     23       4.9163      0.00000
     24       4.9776      0.00000

 k-point    10 :      -0.2562    0.5131    0.0000
  band No.  band energies     occupation 
      1     -18.7101      2.00000
      2     -16.6942      2.00000
      3     -16.2369      2.00000
      4     -12.7770      2.00000
      5     -12.1035      2.00000
      6      -9.6808      2.00000
      7      -9.0666      2.00000
      8      -8.0440      2.00000
      9      -7.0973      2.00000
     10      -7.0674      2.00000
     11      -6.2556      2.00000
     12      -5.5237      2.00000
     13      -5.4655      2.00000
     14      -4.9084      2.00000
     15      -4.7313      2.00000
     16      -1.6313      0.00000
     17       0.0916      0.00000
     18       2.6949      0.00000
     19       3.5094      0.00000
     20       3.9168      0.00000
     21       4.3459      0.00000
     22       4.5662      0.00000
     23       4.7530      0.00000
     24       5.0018      0.00000

 k-point    11 :      -0.2476    0.4960    0.0000
  band No.  band energies     occupation 
      1     -18.6876      2.00000
      2     -16.7140      2.00000
      3     -16.2838      2.00000
      4     -12.7255      2.00000
      5     -12.0875      2.00000
      6      -9.7559      2.00000
      7      -8.9466      2.00000
      8      -7.9388      2.00000
      9      -7.0991      2.00000
     10      -7.0436      2.00000
     11      -6.3115      2.00000
     12      -5.5930      2.00000
     13      -5.5063      2.00000
     14      -4.9798      2.00000
     15      -4.8255      2.00000
     16      -1.5596      0.00000
     17       0.0260      0.00000
     18       2.7872      0.00000
     19       3.6372      0.00000
     20       4.0379      0.00000
     21       4.4373      0.00000
     22       4.5322      0.00000
     23       4.5983      0.00000
     24       5.0940      0.00000

 k-point    12 :      -0.2391    0.4789    0.0000
  band No.  band energies     occupation 
      1     -18.6668      2.00000
      2     -16.7401      2.00000
      3     -16.3148      2.00000
      4     -12.7100      2.00000
      5     -12.0368      2.00000
      6      -9.8335      2.00000
      7      -8.8220      2.00000
      8      -7.8419      2.00000
      9      -7.1522      2.00000
     10      -6.9903      2.00000
     11      -6.3508      2.00000
     12      -5.6647      2.00000
     13      -5.5649      2.00000
     14      -5.0209      2.00000
     15      -4.9025      2.00000
     16      -1.5118      0.00000
     17      -0.0135      0.00000
     18       2.8869      0.00000
     19       3.7125      0.00000
     20       4.1668      0.00000
     21       4.3226      0.00000
     22       4.5676      0.00000
     23       4.6334      0.00000
     24       5.1936      0.00000

 k-point    13 :      -0.2305    0.4618    0.0000
  band No.  band energies     occupation 
      1     -18.6486      2.00000
      2     -16.7706      2.00000
      3     -16.3296      2.00000
      4     -12.7241      2.00000
      5     -11.9620      2.00000
      6      -9.9033      2.00000
      7      -8.7022      2.00000
      8      -7.7760      2.00000
      9      -7.1963      2.00000
     10      -6.9398      2.00000
     11      -6.3900      2.00000
     12      -5.7297      2.00000
     13      -5.6360      2.00000
     14      -5.0339      2.00000
     15      -4.9580      2.00000
     16      -1.4909      0.00000
     17      -0.0253      0.00000
     18       2.9940      0.00000
     19       3.7449      0.00000
     20       4.1184      0.00000
     21       4.2876      0.00000
     22       4.6771      0.00000
     23       4.7356      0.00000
     24       5.3003      0.00000

 k-point    14 :      -0.2220    0.4447    0.0000
  band No.  band energies     occupation 
      1     -18.6343      2.00000
      2     -16.8022      2.00000
      3     -16.3302      2.00000
      4     -12.7562      2.00000
      5     -11.8792      2.00000
      6      -9.9578      2.00000
      7      -8.5948      2.00000
      8      -7.7747      2.00000
      9      -7.1868      2.00000
     10      -6.8959      2.00000
     11      -6.4474      2.00000
     12      -5.7765      2.00000
     13      -5.7090      2.00000
     14      -5.0252      2.00000
     15      -4.9896      2.00000
     16      -1.4960      0.00000
     17      -0.0111      0.00000
     18       3.1085      0.00000
     19       3.7436      0.00000
     20       3.9212      0.00000
     21       4.4015      0.00000
     22       4.7282      0.00000
     23       4.9059      0.00000
     24       5.2564      0.00000

 k-point    15 :      -0.2135    0.4276    0.0000
  band No.  band energies     occupation 
      1     -18.6248      2.00000
      2     -16.8304      2.00000
      3     -16.3193      2.00000
      4     -12.7976      2.00000
      5     -11.8029      2.00000
      6      -9.9904      2.00000
      7      -8.5109      2.00000
      8      -7.8367      2.00000
      9      -7.1139      2.00000
     10      -6.8634      2.00000
     11      -6.5290      2.00000
     12      -5.7995      2.00000
     13      -5.7727      2.00000
     14      -5.0009      2.00000
     15      -4.9965      2.00000
     16      -1.5234      0.00000
     17       0.0243      0.00000
     18       3.2303      0.00000
     19       3.7147      0.00000
     20       3.7312      0.00000
     21       4.5146      0.00000
     22       4.7866      0.00000
     23       4.9346      0.00000
     24       5.2716      0.00000

 k-point    16 :      -0.2049    0.4105    0.0000
  band No.  band energies     occupation 
      1     -18.6212      2.00000
      2     -16.8515      2.00000
      3     -16.2994      2.00000
      4     -12.8427      2.00000
      5     -11.7440      2.00000
      6      -9.9956      2.00000
      7      -8.4728      2.00000
      8      -7.9118      2.00000
      9      -7.0219      2.00000
     10      -6.8479      2.00000
     11      -6.6131      2.00000
     12      -5.8172      2.00000
     13      -5.8027      2.00000
     14      -4.9792      2.00000
     15      -4.9652      2.00000
     16      -1.5674      0.00000
     17       0.0743      0.00000
     18       3.3594      0.00000
     19       3.5484      0.00000
     20       3.6618      0.00000
     21       4.6261      0.00000
     22       4.8126      0.00000
     23       4.8522      0.00000
     24       5.4466      0.00000

 k-point    17 :      -0.1964    0.3934    0.0000
  band No.  band energies     occupation 
      1     -18.6242      2.00000
      2     -16.8629      2.00000
      3     -16.2723      2.00000
      4     -12.8884      2.00000
      5     -11.7095      2.00000
      6      -9.9697      2.00000
      7      -8.5108      2.00000
      8      -7.9478      2.00000
      9      -6.9954      2.00000
     10      -6.8542      2.00000
     11      -6.6265      2.00000
     12      -5.8352      2.00000
     13      -5.7940      2.00000
     14      -4.9393      2.00000
     15      -4.9208      2.00000
     16      -1.6224      0.00000
     17       0.1329      0.00000
     18       3.3724      0.00000
     19       3.4962      0.00000
     20       3.5884      0.00000
     21       4.6340      0.00000
     22       4.7709      0.00000
     23       4.9250      0.00000
     24       5.5134      0.00000

 k-point    18 :      -0.1878    0.3763    0.0000
  band No.  band energies     occupation 
      1     -18.6343      2.00000
      2     -16.8626      2.00000
      3     -16.2394      2.00000
      4     -12.9328      2.00000
      5     -11.7019      2.00000
      6      -9.9129      2.00000
      7      -8.6250      2.00000
      8      -7.9375      2.00000
      9      -7.0756      2.00000
     10      -6.8837      2.00000
     11      -6.5260      2.00000
     12      -5.8235      2.00000
     13      -5.7780      2.00000
     14      -4.8793      2.00000
     15      -4.8694      2.00000
     16      -1.6836      0.00000
     17       0.1949      0.00000
     18       3.2042      0.00000
     19       3.4970      0.00000
     20       3.6398      0.00000
     21       4.4887      0.00000
     22       4.8713      0.00000
     23       5.0050      0.00000
     24       5.4475      0.00000

 k-point    19 :      -0.1793    0.3592    0.0000
  band No.  band energies     occupation 
      1     -18.6513      2.00000
      2     -16.8497      2.00000
      3     -16.2017      2.00000
      4     -12.9748      2.00000
      5     -11.7195      2.00000
      6      -9.8301      2.00000
      7      -8.7826      2.00000
      8      -7.9190      2.00000
      9      -7.1844      2.00000
     10      -6.9339      2.00000
     11      -6.3794      2.00000
     12      -5.7840      2.00000
     13      -5.7540      2.00000
     14      -4.8122      2.00000
     15      -4.8029      2.00000
     16      -1.7470      0.00000
     17       0.2563      0.00000
     18       3.0432      0.00000
     19       3.3900      0.00000
     20       3.7909      0.00000
     21       4.3355      0.00000
     22       4.9184      0.00000
     23       5.0920      0.00000
     24       5.3309      0.00000

 k-point    20 :      -0.1708    0.3421    0.0000
  band No.  band energies     occupation 
      1     -18.6749      2.00000
      2     -16.8241      2.00000
      3     -16.1600      2.00000
      4     -13.0133      2.00000
      5     -11.7583      2.00000
      6      -9.7307      2.00000
      7      -8.9560      2.00000
      8      -7.9356      2.00000
      9      -7.2625      2.00000
     10      -6.9995      2.00000
     11      -6.2295      2.00000
     12      -5.7213      2.00000
     13      -5.7148      2.00000
     14      -4.7502      2.00000
     15      -4.7136      2.00000
     16      -1.8099      0.00000
     17       0.3145      0.00000
     18       2.8896      0.00000
     19       3.2699      0.00000
     20       3.9492      0.00000
     21       4.1811      0.00000
     22       4.8098      0.00000
     23       5.1832      0.00000
     24       5.1978      0.00000

 k-point    21 :      -0.1622    0.3249    0.0000
  band No.  band energies     occupation 
      1     -18.7043      2.00000
      2     -16.7863      2.00000
      3     -16.1149      2.00000
      4     -13.0480      2.00000
      5     -11.8130      2.00000
      6      -9.6348      2.00000
      7      -9.1199      2.00000
      8      -8.0154      2.00000
      9      -7.2790      2.00000
     10      -7.0751      2.00000
     11      -6.1009      2.00000
     12      -5.6460      2.00000
     13      -5.6408      2.00000
     14      -4.6843      2.00000
     15      -4.6148      2.00000
     16      -1.8699      0.00000
     17       0.3675      0.00000
     18       2.7433      0.00000
     19       3.1389      0.00000
     20       4.0244      0.00000
     21       4.1147      0.00000
     22       4.6221      0.00000
     23       5.0484      0.00000
     24       5.2875      0.00000

 k-point    22 :      -0.1537    0.3078    0.0000
  band No.  band energies     occupation 
      1     -18.7384      2.00000
      2     -16.7369      2.00000
      3     -16.0670      2.00000
      4     -13.0785      2.00000
      5     -11.8791      2.00000
      6      -9.6013      2.00000
      7      -9.2156      2.00000
      8      -8.1510      2.00000
      9      -7.2398      2.00000
     10      -7.1561      2.00000
     11      -6.0113      2.00000
     12      -5.5469      2.00000
     13      -5.5338      2.00000
     14      -4.6153      2.00000
     15      -4.5096      2.00000
     16      -1.9250      0.00000
     17       0.4145      0.00000
     18       2.6044      0.00000
     19       2.9988      0.00000
     20       3.8624      0.00000
     21       4.2874      0.00000
     22       4.4196      0.00000
     23       4.9098      0.00000
     24       5.3953      0.00000

 k-point    23 :      -0.1452    0.2907    0.0000
  band No.  band energies     occupation 
      1     -18.7761      2.00000
      2     -16.6770      2.00000
      3     -16.0168      2.00000
      4     -13.1044      2.00000
      5     -11.9527      2.00000
      6      -9.7023      2.00000
      7      -9.1728      2.00000
      8      -8.3188      2.00000
      9      -7.2393      2.00000
     10      -7.1671      2.00000
     11      -5.9580      2.00000
     12      -5.4430      2.00000
     13      -5.3823      2.00000
     14      -4.5442      2.00000
     15      -4.4004      2.00000
     16      -1.9738      0.00000
     17       0.4546      0.00000
     18       2.4728      0.00000
     19       2.8515      0.00000
     20       3.6910      0.00000
     21       4.2209      0.00000
     22       4.4672      0.00000
     23       4.7785      0.00000
     24       5.5095      0.00000

 k-point    24 :      -0.1366    0.2736    0.0000
  band No.  band energies     occupation 
      1     -18.8163      2.00000
      2     -16.6079      2.00000
      3     -15.9648      2.00000
      4     -13.1254      2.00000
      5     -12.0311      2.00000
      6      -9.8745      2.00000
      7      -9.0570      2.00000
      8      -8.5018      2.00000
      9      -7.3224      2.00000
     10      -7.0766      2.00000
     11      -5.9262      2.00000
     12      -5.3317      2.00000
     13      -5.2078      2.00000
     14      -4.4719      2.00000
     15      -4.2892      2.00000
     16      -2.0146      0.00000
     17       0.4876      0.00000
     18       2.3487      0.00000
     19       2.6985      0.00000
     20       3.5062      0.00000
     21       4.0355      0.00000
     22       4.6528      0.00000
     23       4.6559      0.00000
     24       5.6297      0.00000

 k-point    25 :      -0.1281    0.2565    0.0000
  band No.  band energies     occupation 
      1     -18.8579      2.00000
      2     -16.5306      2.00000
      3     -15.9115      2.00000
      4     -13.1416      2.00000
      5     -12.1119      2.00000
      6     -10.0652      2.00000
      7      -8.9239      2.00000
      8      -8.6900      2.00000
      9      -7.4038      2.00000
     10      -6.9758      2.00000
     11      -5.9043      2.00000
     12      -5.2149      2.00000
     13      -5.0230      2.00000
     14      -4.3994      2.00000
     15      -4.1777      2.00000
     16      -2.0462      0.00000
     17       0.5136      0.00000
     18       2.2321      0.00000
     19       2.5415      0.00000
     20       3.3055      0.00000
     21       3.8687      0.00000
     22       4.5380      0.00000
     23       4.8478      0.00000
     24       5.7549      0.00000

 k-point    26 :      -0.1195    0.2394    0.0000
  band No.  band energies     occupation 
      1     -18.9001      2.00000
      2     -16.4464      2.00000
      3     -15.8574      2.00000
      4     -13.1527      2.00000
      5     -12.1938      2.00000
      6     -10.2598      2.00000
      7      -8.8910      2.00000
      8      -8.7772      2.00000
      9      -7.4824      2.00000
     10      -6.8686      2.00000
     11      -5.8864      2.00000
     12      -5.0943      2.00000
     13      -4.8347      2.00000
     14      -4.3281      2.00000
     15      -4.0676      2.00000
     16      -2.0672      0.00000
     17       0.5329      0.00000
     18       2.1228      0.00000
     19       2.3816      0.00000
     20       3.0905      0.00000
     21       3.7213      0.00000
     22       4.4289      0.00000
     23       5.0483      0.00000
     24       5.8827      0.00000

 k-point    27 :      -0.1110    0.2223    0.0000
  band No.  band energies     occupation 
      1     -18.9419      2.00000
      2     -16.3564      2.00000
      3     -15.8032      2.00000
      4     -13.1589      2.00000
      5     -12.2754      2.00000
      6     -10.4530      2.00000
      7      -9.0764      2.00000
      8      -8.6484      2.00000
      9      -7.5573      2.00000
     10      -6.7572      2.00000
     11      -5.8698      2.00000
     12      -4.9714      2.00000
     13      -4.6471      2.00000
     14      -4.2589      2.00000
     15      -3.9598      2.00000
     16      -2.0763      0.00000
     17       0.5460      0.00000
     18       2.0210      0.00000
     19       2.2204      0.00000
     20       2.8650      0.00000
     21       3.5915      0.00000
     22       4.3271      0.00000
     23       5.2553      0.00000
     24       6.0057      0.00000

 k-point    28 :      -0.1025    0.2052    0.0000
  band No.  band energies     occupation 
      1     -18.9826      2.00000
      2     -16.2619      2.00000
      3     -15.7494      2.00000
      4     -13.1601      2.00000
[...]
      1     -18.6689      2.00000
      2     -16.9394      2.00000
      3     -15.9657      2.00000
      4     -13.3520      2.00000
      5     -11.4019      2.00000
      6      -9.5841      2.00000
      7      -9.0335      2.00000
      8      -8.2771      2.00000
      9      -7.0826      2.00000
     10      -6.9574      2.00000
     11      -6.4993      2.00000
     12      -5.9371      2.00000
     13      -5.5950      2.00000
     14      -4.5271      2.00000
     15      -4.4030      2.00000
     16      -2.2252      0.00000
     17       0.8300      0.00000
     18       2.7232      0.00000
     19       3.0754      0.00000
     20       3.4829      0.00000
     21       4.3635      0.00000
     22       4.7322      0.00000
     23       5.3754      0.00000
     24       5.5522      0.00000

 k-point   110 :      -0.1194    0.4960    0.0000
  band No.  band energies     occupation 
      1     -18.6809      2.00000
      2     -16.8912      2.00000
      3     -16.0147      2.00000
      4     -13.2582      2.00000
      5     -11.5317      2.00000
      6      -9.6059      2.00000
      7      -9.0842      2.00000
      8      -8.1121      2.00000
      9      -7.2665      2.00000
     10      -7.0012      2.00000
     11      -6.2618      2.00000
     12      -5.8400      2.00000
     13      -5.6505      2.00000
     14      -4.5537      2.00000
     15      -4.4972      2.00000
     16      -2.1043      0.00000
     17       0.6660      0.00000
     18       2.8653      0.00000
     19       2.9149      0.00000
     20       3.7281      0.00000
     21       4.2081      0.00000
     22       4.8721      0.00000
     23       5.2173      0.00000
     24       5.2910      0.00000

 k-point   111 :      -0.1408    0.5131    0.0000
  band No.  band energies     occupation 
      1     -18.7016      2.00000
      2     -16.8235      2.00000
      3     -16.0599      2.00000
      4     -13.1522      2.00000
      5     -11.7000      2.00000
      6      -9.6048      2.00000
      7      -9.1470      2.00000
      8      -8.0340      2.00000
      9      -7.3322      2.00000
     10      -7.0637      2.00000
     11      -6.0848      2.00000
     12      -5.7085      2.00000
     13      -5.6651      2.00000
     14      -4.5862      2.00000
     15      -4.5637      2.00000
     16      -1.9843      0.00000
     17       0.5059      0.00000
     18       2.7705      0.00000
     19       2.9864      0.00000
     20       3.9892      0.00000
     21       4.0584      0.00000
     22       4.7307      0.00000
     23       5.0747      0.00000
     24       5.3417      0.00000

 k-point   112 :      -0.1621    0.5302    0.0000
  band No.  band energies     occupation 
      1     -18.7279      2.00000
      2     -16.7439      2.00000
      3     -16.0960      2.00000
      4     -13.0421      2.00000
      5     -11.8870      2.00000
      6      -9.6036      2.00000
      7      -9.1935      2.00000
      8      -8.1074      2.00000
      9      -7.2331      2.00000
     10      -7.1327      2.00000
     11      -6.0516      2.00000
     12      -5.5602      2.00000
     13      -5.5602      2.00000
     14      -4.6618      2.00000
     15      -4.5556      2.00000
     16      -1.8808      0.00000
     17       0.3672      0.00000
     18       2.6422      0.00000
     19       3.0826      0.00000
     20       3.9047      0.00000
     21       4.2659      0.00000
     22       4.4561      0.00000
     23       4.9477      0.00000
     24       5.3135      0.00000

 k-point   113 :      -0.1835    0.5473    0.0000
  band No.  band energies     occupation 
      1     -18.7569      2.00000
      2     -16.6638      2.00000
      3     -16.1145      2.00000
      4     -12.9434      2.00000
      5     -12.0668      2.00000
      6      -9.6328      2.00000
      7      -9.2000      2.00000
      8      -8.2491      2.00000
      9      -7.2008      2.00000
     10      -7.0709      2.00000
     11      -6.0997      2.00000
     12      -5.4144      2.00000
     13      -5.3929      2.00000
     14      -4.7113      2.00000
     15      -4.5250      2.00000
     16      -1.8135      0.00000
     17       0.2718      0.00000
     18       2.5300      0.00000
     19       3.1472      0.00000
     20       3.7253      0.00000
     21       4.2144      0.00000
     22       4.5580      0.00000
     23       4.8364      0.00000
     24       5.1747      0.00000

 k-point   114 :      -0.2048    0.5644    0.0000
  band No.  band energies     occupation 
      1     -18.7859      2.00000
      2     -16.5982      2.00000
      3     -16.1042      2.00000
      4     -12.8904      2.00000
      5     -12.1967      2.00000
      6      -9.7068      2.00000
      7      -9.1601      2.00000
      8      -8.3919      2.00000
      9      -7.2633      2.00000
     10      -6.9428      2.00000
     11      -6.1296      2.00000
     12      -5.2985      2.00000
     13      -5.2445      2.00000
     14      -4.7122      2.00000
     15      -4.4653      2.00000
     16      -1.8013      0.00000
     17       0.2411      0.00000
     18       2.4341      0.00000
     19       3.1561      0.00000
     20       3.5197      0.00000
     21       4.0531      0.00000
     22       4.7407      0.00000
     23       4.8647      0.00000
     24       5.0511      0.00000

 k-point   115 :      -0.2262    0.5815    0.0000
  band No.  band energies     occupation 
      1     -18.8128      2.00000
      2     -16.5599      2.00000
      3     -16.0569      2.00000
      4     -12.9295      2.00000
      5     -12.2244      2.00000
      6      -9.8146      2.00000
      7      -9.0900      2.00000
      8      -8.5124      2.00000
      9      -7.3176      2.00000
     10      -6.9046      2.00000
     11      -6.0885      2.00000
     12      -5.2401      2.00000
     13      -5.1426      2.00000
     14      -4.6416      2.00000
     15      -4.3757      2.00000
     16      -1.8524      0.00000
     17       0.2875      0.00000
     18       2.3543      0.00000
     19       3.0250      0.00000
     20       3.3895      0.00000
     21       3.9636      0.00000
     22       4.6610      0.00000
     23       4.9406      0.00000
     24       5.1873      0.00000

 k-point   116 :      -0.2476    0.5986    0.0000
  band No.  band energies     occupation 
      1     -18.8360      2.00000
      2     -16.5484      2.00000
      3     -15.9792      2.00000
      4     -13.0491      2.00000
      5     -12.1572      2.00000
      6      -9.9394      2.00000
      7      -9.0077      2.00000
      8      -8.6038      2.00000
      9      -7.3622      2.00000
     10      -6.9512      2.00000
     11      -5.9835      2.00000
     12      -5.2341      2.00000
     13      -5.0873      2.00000
     14      -4.5109      2.00000
     15      -4.2682      2.00000
     16      -1.9572      0.00000
     17       0.4060      0.00000
     18       2.2907      0.00000
     19       2.7614      0.00000
     20       3.3596      0.00000
     21       3.9196      0.00000
     22       4.5971      0.00000
     23       4.8477      0.00000
     24       5.5196      0.00000

 k-point   117 :      -0.2689    0.6157    0.0000
  band No.  band energies     occupation 
      1     -18.8542      2.00000
      2     -16.5532      2.00000
      3     -15.8896      2.00000
      4     -13.1922      2.00000
      5     -12.0496      2.00000
      6     -10.0649      2.00000
      7      -8.9262      2.00000
      8      -8.6667      2.00000
      9      -7.3960      2.00000
     10      -7.0373      2.00000
     11      -5.8596      2.00000
     12      -5.2529      2.00000
     13      -5.0665      2.00000
     14      -4.3567      2.00000
     15      -4.1629      2.00000
     16      -2.0924      0.00000
     17       0.5792      0.00000
     18       2.2435      0.00000
     19       2.4676      0.00000
     20       3.3530      0.00000
     21       3.9034      0.00000
     22       4.5493      0.00000
     23       4.7703      0.00000
     24       5.8534      0.00000

 k-point   118 :      -0.2903    0.6328    0.0000
  band No.  band energies     occupation 
      1     -18.8667      2.00000
      2     -16.5644      2.00000
      3     -15.8077      2.00000
      4     -13.3190      2.00000
      5     -11.9410      2.00000
      6     -10.1732      2.00000
      7      -8.8563      2.00000
      8      -8.7048      2.00000
      9      -7.4183      2.00000
     10      -7.1267      2.00000
     11      -5.7511      2.00000
     12      -5.2777      2.00000
     13      -5.0678      2.00000
     14      -4.2119      2.00000
     15      -4.0780      2.00000
     16      -2.2285      0.00000
     17       0.7834      0.00000
     18       2.1841      0.00000
     19       2.2127      0.00000
     20       3.3521      0.00000
     21       3.9042      0.00000
     22       4.5178      0.00000
     23       4.7089      0.00000
     24       6.0055      0.00000

 k-point   119 :      -0.3116    0.6499    0.0000
  band No.  band energies     occupation 
      1     -18.8728      2.00000
      2     -16.5766      2.00000
      3     -15.7509      2.00000
      4     -13.4062      2.00000
      5     -11.8576      2.00000
      6     -10.2445      2.00000
      7      -8.8070      2.00000
      8      -8.7239      2.00000
      9      -7.4290      2.00000
     10      -7.1962      2.00000
     11      -5.6772      2.00000
     12      -5.3001      2.00000
     13      -5.0816      2.00000
     14      -4.1064      2.00000
     15      -4.0257      2.00000
     16      -2.3332      0.00000
     17       0.9808      0.00000
     18       1.9468      0.00000
     19       2.1983      0.00000
     20       3.3569      0.00000
     21       3.9150      0.00000
     22       4.5029      0.00000
     23       4.6638      0.00000
     24       5.9678      0.00000

 k-point   120 :      -0.3330    0.6670    0.0000
  band No.  band energies     occupation 
      1     -18.8723      2.00000
      2     -16.5867      2.00000
      3     -15.7319      2.00000
      4     -13.4389      2.00000
      5     -11.8194      2.00000
      6     -10.2602      2.00000
      7      -8.7925      2.00000
      8      -8.7222      2.00000
      9      -7.4276      2.00000
     10      -7.2306      2.00000
     11      -5.6492      2.00000
     12      -5.3166      2.00000
     13      -5.1011      2.00000
     14      -4.0679      2.00000
     15      -4.0125      2.00000
     16      -2.3755      0.00000
     17       1.0809      0.00000
     18       1.8426      0.00000
     19       2.2004      0.00000
     20       3.3697      0.00000
     21       3.9318      0.00000
     22       4.5047      0.00000
     23       4.6352      0.00000
     24       5.9424      0.00000


--------------------------------------------------------------------------------------------------------


 soft charge-density along one line, spin component           1
         0         1         2         3         4         5         6         7         8         9
 total charge-density along one line
 
 pseudopotential strength for first ion, spin component:           1
  6.694  10.211  -0.000   0.000  -0.000  -0.000   0.000  -0.000
 10.211  15.572  -0.000   0.000  -0.000  -0.000   0.000  -0.000
 -0.000  -0.000  -2.297  -0.000  -0.000  -3.938  -0.000  -0.000
  0.000   0.000  -0.000  -2.302   0.000  -0.000  -3.945   0.000
 -0.000  -0.000  -0.000   0.000  -2.297  -0.000   0.000  -3.938
 -0.000  -0.000  -3.938  -0.000  -0.000  -6.553  -0.000  -0.000
  0.000   0.000  -0.000  -3.945   0.000  -0.000  -6.562   0.000
 -0.000  -0.000  -0.000   0.000  -3.938  -0.000   0.000  -6.553
 total augmentation occupancy for first ion, spin component:           1
  2.000   0.000   0.000   0.000   0.000   0.000   0.000   0.000
  0.000   0.000   0.000   0.000   0.000   0.000   0.000   0.000
  0.000   0.000   0.333   0.000   0.000   0.000   0.000   0.000
  0.000   0.000   0.000   0.333   0.000   0.000   0.000   0.000
  0.000   0.000   0.000   0.000   0.333   0.000   0.000   0.000
  0.000   0.000   0.000   0.000   0.000   0.000   0.000   0.000
  0.000   0.000   0.000   0.000   0.000   0.000   0.000   0.000
  0.000   0.000   0.000   0.000   0.000   0.000   0.000   0.000


------------------------ aborting loop because EDIFF is reached ----------------------------------------


 


 total charge     
 
# of ion       s       p       d       tot
------------------------------------------
    1        0.748   1.294   0.000   2.041
    2        0.748   1.294   0.000   2.041
    3        0.870   1.758   0.000   2.629
    4        0.870   1.736   0.000   2.606
    5        0.870   1.750   0.000   2.620
    6        0.870   1.750   0.000   2.620
    7        0.870   1.736   0.000   2.606
    8        0.870   1.758   0.000   2.629
--------------------------------------------------
tot          6.718  13.075   0.000  19.793
 
    CHARGE:  cpu time    0.6428: real time    0.6465
    FORLOC:  cpu time    0.0058: real time    0.0059
    FORNL :  cpu time    1.0598: real time    1.0605
    STRESS:  cpu time    6.6109: real time    6.6154
    FORCOR:  cpu time    0.0784: real time    0.0785
    FORHAR:  cpu time    0.0205: real time    0.0205
    OFIELD:  cpu time    0.0007: real time    0.0007

  FORCE on cell =-STRESS in cart. coord.  units (eV):
  Direction    XX          YY          ZZ          XY          YZ          ZX
  --------------------------------------------------------------------------------------
  Alpha Z    19.81068    19.81068    19.81068
  Ewald    2335.91584  2335.89008 -3232.65577     0.00000    -0.00000    -0.00000
  Hartree  2302.50294  2302.55309 -2241.97355    -0.00000    -0.00000    -0.00000
  E(xc)    -107.43616  -107.43335  -111.24330     0.00000     0.00000    -0.00000
  Local   -4960.85244 -4960.44507  5133.91601     0.00004     0.00000    -0.00000
  n-local   -23.24519   -23.21177   -11.89112    -0.07994     0.00000     0.00000
  augment    -1.88635    -1.88720    -1.85964    -0.00003    -0.00000     0.00000
  Kinetic   436.60614   436.36143   447.35412     1.29498    -0.00000    -0.00000
  Fock        0.00000     0.00000     0.00000     0.00000     0.00000     0.00000
  -------------------------------------------------------------------------------------
  Total       1.41546     1.63789     1.45743     0.00000     0.00000     0.00000
  in kB       8.85698    10.24881     9.11957     0.00000     0.00000     0.00000
  external pressure =        9.41 kB  Pullay stress =        0.00 kB


 VOLUME and BASIS-vectors are now :
 -----------------------------------------------------------------------------
  energy-cutoff  :      450.00
  volume of cell :      256.05
      direct lattice vectors                 reciprocal lattice vectors
     5.174713750  0.000000000  0.000000000     0.193247404 -0.111603030  0.000000000
     2.587356875  4.480165087  0.000000000    -0.000000000  0.223206061  0.000000000
     0.000000000  0.000000000 11.044411914     0.000000000  0.000000000  0.090543526

  length of vectors
     5.174713750  5.173615255 11.044411914     0.223158678  0.223206061  0.090543526


 FORCES acting on ions
    electron-ion (+dipol)            ewald-force                    non-local-force                 convergence-correction
 -----------------------------------------------------------------------------------------------
   0.194E-05 0.137E+00 0.160E-06   0.147E-11 -.729E-01 -.970E-19   0.694E-17 -.561E-01 0.000E+00   -.389E-04 -.367E-01 -.402E-11
   -.146E-05 -.137E+00 -.165E-06   -.126E-10 0.729E-01 0.170E-18   -.607E-17 0.561E-01 0.119E-23   0.568E-04 0.365E-01 -.348E-11
   -.456E+02 -.262E+02 -.373E-06   0.479E+02 0.276E+02 0.102E-18   -.354E+01 -.198E+01 -.165E-22   0.793E+00 0.390E+00 -.699E-11
   0.456E+02 -.262E+02 0.478E-06   -.479E+02 0.276E+02 0.170E-18   0.354E+01 -.198E+01 0.165E-23   -.793E+00 0.390E+00 -.640E-11
   -.126E-05 -.525E+02 -.534E-06   0.147E-10 0.553E+02 0.113E-18   -.111E-15 -.412E+01 0.000E+00   0.268E-03 0.854E+00 -.592E-11
   -.482E-05 0.525E+02 0.488E-06   0.367E-11 -.553E+02 -.562E-18   0.111E-15 0.412E+01 0.000E+00   0.143E-03 -.853E+00 -.688E-11
   -.456E+02 0.262E+02 -.528E-06   0.479E+02 -.276E+02 -.220E-18   -.354E+01 0.198E+01 0.000E+00   0.793E+00 -.390E+00 -.592E-11
   0.456E+02 0.262E+02 0.315E-06   -.479E+02 -.276E+02 0.324E-18   0.354E+01 0.198E+01 0.000E+00   -.793E+00 -.390E+00 -.641E-11
 -----------------------------------------------------------------------------------------------
   -.993E-05 -.554E-05 -.160E-06   -.711E-14 -.142E-13 0.000E+00   0.444E-15 -.222E-15 -.137E-22   -.172E-04 0.346E-03 -.460E-10
 
 
 POSITION                                       TOTAL-FORCE (eV/Angst)
 -----------------------------------------------------------------------------------
      1.35519      0.78209      0.00000        -0.000000     -0.028764      0.000000
      3.94254      2.27584      0.00000        -0.000000      0.028764     -0.000000
      7.76143      4.48012      0.00000        -0.383572     -0.151208      0.000000
      5.29838      4.48012      0.00000         0.383572     -0.151208      0.000000
      3.94254      0.71092      0.00000        -0.000000     -0.478669      0.000000
      6.52990      2.34701      0.00000         0.000000      0.478669      0.000000
      2.58671      3.05798      0.00000        -0.383572      0.151208      0.000000
      5.29838      3.05798      0.00000         0.383572      0.151208      0.000000
 -----------------------------------------------------------------------------------
    total drift:                               -0.000027      0.000340     -0.000000


--------------------------------------------------------------------------------------------------------



  FREE ENERGIE OF THE ION-ELECTRON SYSTEM (eV)
  ---------------------------------------------------
  free  energy   TOTEN  =       -66.26881749 eV

  energy  without entropy=      -66.26881729  energy(sigma->0) =      -66.26881739
 


--------------------------------------------------------------------------------------------------------


    POTLOK:  cpu time    0.0788: real time    0.0789


--------------------------------------------------------------------------------------------------------


 writing wavefunctions
     LOOP+:  cpu time  106.1970: real time  107.4838
    4ORBIT:  cpu time    0.0000: real time    0.0000
 


 total charge     
 
# of ion       s       p       d       tot
------------------------------------------
    1        0.748   1.294   0.000   2.041
    2        0.748   1.294   0.000   2.041
    3        0.870   1.758   0.000   2.629
    4        0.870   1.736   0.000   2.606
    5        0.870   1.750   0.000   2.620
    6        0.870   1.750   0.000   2.620
    7        0.870   1.736   0.000   2.606
    8        0.870   1.758   0.000   2.629
--------------------------------------------------
tot          6.718  13.075   0.000  19.793
 

 total amount of memory used by VASP MPI-rank0   148993. kBytes
=======================================================================

   base      :      30000. kBytes
   nonl-proj :      86423. kBytes
   fftplans  :       2770. kBytes
   grid      :       8073. kBytes
   one-center:         24. kBytes
   wavefun   :      21703. kBytes
 
  
  
 General timing and accounting informations for this job:
 ========================================================
  
                  Total CPU time used (sec):      112.155
                            User time (sec):      111.029
                          System time (sec):        1.126
                         Elapsed time (sec):      114.032
  
                   Maximum memory used (kb):      242724.
                   Average memory used (kb):           0.
  
                          Minor page faults:        41819
                          Major page faults:            0
                 Voluntary context switches:         6247
