PROCAR lm decomposed
# of k-points:  120         # of bands:   24         # of ions:    8

 k-point     1 :   -0.33300000 0.66700000 0.00000000     weight = 0.00833333

band     1 # energy  -18.87234872 # occ.  2.00000000
 
ion      s     py     pz     px    dxy    dyz    dz2    dxz  x2-y2    tot
    1  0.015  0.001  0.000  0.004  0.000  0.000  0.000  0.000  0.000  0.020
    2  0.015  0.001  0.000  0.004  0.000  0.000  0.000  0.000  0.000  0.020
    3  0.087  0.002  0.000  0.007  0.000  0.000  0.000  0.000  0.000  0.095
    4  0.098  0.001  0.000  0.006  0.000  0.000  0.000  0.000  0.000  0.105
    5  0.098  0.007  0.000  0.001  0.000  0.000  0.000  0.000  0.000  0.105
    6  0.098  0.007  0.000  0.001  0.000  0.000  0.000  0.000  0.000  0.105
    7  0.098  0.001  0.000  0.006  0.000  0.000  0.000  0.000  0.000  0.105
    8  0.087  0.002  0.000  0.007  0.000  0.000  0.000  0.000  0.000  0.095
tot    0.594  0.023  0.000  0.034  0.000  0.000  0.000  0.000  0.000  0.651
 
band     2 # energy  -16.58667792 # occ.  2.00000000
 
ion      s     py     pz     px    dxy    dyz    dz2    dxz  x2-y2    tot
    1  0.036  0.002  0.000  0.006  0.000  0.000  0.000  0.000  0.000  0.044
    2  0.036  0.002  0.000  0.006  0.000  0.000  0.000  0.000  0.000  0.044
    3  0.156  0.001  0.000  0.003  0.000  0.000  0.000  0.000  0.000  0.160
    4  0.047  0.012  0.000  0.006  0.000  0.000  0.000  0.000  0.000  0.065
    5  0.047  0.002  0.000  0.016  0.000  0.000  0.000  0.000  0.000  0.065
    6  0.047  0.002  0.000  0.016  0.000  0.000  0.000  0.000  0.000  0.065
    7  0.047  0.012  0.000  0.006  0.000  0.000  0.000  0.000  0.000  0.065
    8  0.156  0.001  0.000  0.003  0.000  0.000  0.000  0.000  0.000  0.160
tot    0.574  0.034  0.000  0.061  0.000  0.000  0.000  0.000  0.000  0.669
 
band     3 # energy  -15.73192486 # occ.  2.00000000
 
ion      s     py     pz     px    dxy    dyz    dz2    dxz  x2-y2    tot
    1  0.000  0.017  0.000  0.006  0.000  0.000  0.000  0.000  0.000  0.023
    2  0.000  0.017  0.000  0.006  0.000  0.000  0.000  0.000  0.000  0.023
    3  0.000  0.027  0.000  0.009  0.000  0.000  0.000  0.000  0.000  0.035
    4  0.139  0.001  0.000  0.006  0.000  0.000  0.000  0.000  0.000  0.145
    5  0.139  0.003  0.000  0.004  0.000  0.000  0.000  0.000  0.000  0.145
    6  0.139  0.003  0.000  0.004  0.000  0.000  0.000  0.000  0.000  0.145
    7  0.139  0.001  0.000  0.006  0.000  0.000  0.000  0.000  0.000  0.145
    8  0.000  0.027  0.000  0.009  0.000  0.000  0.000  0.000  0.000  0.035
tot    0.555  0.094  0.000  0.048  0.000  0.000  0.000  0.000  0.000  0.698
 
band     4 # energy  -13.43890693 # occ.  2.00000000
 
ion      s     py     pz     px    dxy    dyz    dz2    dxz  x2-y2    tot
    1  0.081  0.002  0.000  0.006  0.000  0.000  0.000  0.000  0.000  0.088
    2  0.081  0.002  0.000  0.006  0.000  0.000  0.000  0.000  0.000  0.088
    3  0.102  0.000  0.000  0.000  0.000  0.000  0.000  0.000  0.000  0.102
    4  0.015  0.055  0.000  0.000  0.000  0.000  0.000  0.000  0.000  0.071
    5  0.015  0.014  0.000  0.041  0.000  0.000  0.000  0.000  0.000  0.071
    6  0.015  0.014  0.000  0.041  0.000  0.000  0.000  0.000  0.000  0.071
    7  0.015  0.055  0.000  0.000  0.000  0.000  0.000  0.000  0.000  0.071
    8  0.102  0.000  0.000  0.000  0.000  0.000  0.000  0.000  0.000  0.102
tot    0.426  0.144  0.000  0.095  0.000  0.000  0.000  0.000  0.000  0.664
 
band     5 # energy  -11.81939266 # occ.  2.00000000
 
ion      s     py     pz     px    dxy    dyz    dz2    dxz  x2-y2    tot
    1  0.000  0.029  0.000  0.010  0.000  0.000  0.000  0.000  0.000  0.038
    2  0.000  0.029  0.000  0.010  0.000  0.000  0.000  0.000  0.000  0.038
    3  0.000  0.066  0.000  0.022  0.000  0.000  0.000  0.000  0.000  0.088
    4  0.082  0.014  0.000  0.018  0.000  0.000  0.000  0.000  0.000  0.114
    5  0.082  0.003  0.000  0.029  0.000  0.000  0.000  0.000  0.000  0.114
    6  0.082  0.003  0.000  0.029  0.000  0.000  0.000  0.000  0.000  0.114
    7  0.082  0.014  0.000  0.018  0.000  0.000  0.000  0.000  0.000  0.114
    8  0.000  0.066  0.000  0.022  0.000  0.000  0.000  0.000  0.000  0.088
tot    0.326  0.224  0.000  0.157  0.000  0.000  0.000  0.000  0.000  0.707
 
band     6 # energy  -10.26017034 # occ.  2.00000000
 
ion      s     py     pz     px    dxy    dyz    dz2    dxz  x2-y2    tot
    1  0.095  0.004  0.000  0.013  0.000  0.000  0.000  0.000  0.000  0.112
    2  0.095  0.004  0.000  0.013  0.000  0.000  0.000  0.000  0.000  0.112
    3  0.037  0.017  0.000  0.052  0.000  0.000  0.000  0.000  0.000  0.106
    4  0.001  0.019  0.000  0.039  0.000  0.000  0.000  0.000  0.000  0.059
    5  0.001  0.052  0.000  0.006  0.000  0.000  0.000  0.000  0.000  0.059
    6  0.001  0.052  0.000  0.006  0.000  0.000  0.000  0.000  0.000  0.059
    7  0.001  0.019  0.000  0.039  0.000  0.000  0.000  0.000  0.000  0.059
    8  0.037  0.017  0.000  0.052  0.000  0.000  0.000  0.000  0.000  0.106
tot    0.267  0.185  0.000  0.219  0.000  0.000  0.000  0.000  0.000  0.672
 
band     7 # energy   -8.79245728 # occ.  2.00000000
 
ion      s     py     pz     px    dxy    dyz    dz2    dxz  x2-y2    tot
    1  0.000  0.011  0.000  0.004  0.000  0.000  0.000  0.000  0.000  0.015
    2  0.000  0.011  0.000  0.004  0.000  0.000  0.000  0.000  0.000  0.015
    3  0.000  0.065  0.000  0.022  0.000  0.000  0.000  0.000  0.000  0.087
    4  0.009  0.059  0.000  0.060  0.000  0.000  0.000  0.000  0.000  0.128
    5  0.009  0.008  0.000  0.111  0.000  0.000  0.000  0.000  0.000  0.128
    6  0.009  0.008  0.000  0.111  0.000  0.000  0.000  0.000  0.000  0.128
    7  0.009  0.059  0.000  0.060  0.000  0.000  0.000  0.000  0.000  0.128
    8  0.000  0.065  0.000  0.022  0.000  0.000  0.000  0.000  0.000  0.087
tot    0.037  0.287  0.000  0.393  0.000  0.000  0.000  0.000  0.000  0.717
 
band     8 # energy   -8.72224429 # occ.  2.00000000
 
ion      s     py     pz     px    dxy    dyz    dz2    dxz  x2-y2    tot
    1  0.097  0.012  0.000  0.036  0.000  0.000  0.000  0.000  0.000  0.145
    2  0.097  0.012  0.000  0.036  0.000  0.000  0.000  0.000  0.000  0.145
    3  0.031  0.003  0.000  0.010  0.000  0.000  0.000  0.000  0.000  0.044
    4  0.026  0.016  0.000  0.046  0.000  0.000  0.000  0.000  0.000  0.088
    5  0.026  0.030  0.000  0.032  0.000  0.000  0.000  0.000  0.000  0.088
    6  0.026  0.030  0.000  0.032  0.000  0.000  0.000  0.000  0.000  0.088
    7  0.026  0.016  0.000  0.046  0.000  0.000  0.000  0.000  0.000  0.088
    8  0.031  0.003  0.000  0.010  0.000  0.000  0.000  0.000  0.000  0.044
tot    0.361  0.123  0.000  0.245  0.000  0.000  0.000  0.000  0.000  0.729
 
band     9 # energy   -7.42762101 # occ.  2.00000000
 
ion      s     py     pz     px    dxy    dyz    dz2    dxz  x2-y2    tot
    1  0.000  0.000  0.024  0.000  0.000  0.000  0.000  0.000  0.000  0.024
    2  0.000  0.000  0.024  0.000  0.000  0.000  0.000  0.000  0.000  0.024
    3  0.000  0.000  0.059  0.000  0.000  0.000  0.000  0.000  0.000  0.059
    4  0.000  0.000  0.064  0.000  0.000  0.000  0.000  0.000  0.000  0.064
    5  0.000  0.000  0.064  0.000  0.000  0.000  0.000  0.000  0.000  0.064
    6  0.000  0.000  0.064  0.000  0.000  0.000  0.000  0.000  0.000  0.064
    7  0.000  0.000  0.064  0.000  0.000  0.000  0.000  0.000  0.000  0.064
    8  0.000  0.000  0.059  0.000  0.000  0.000  0.000  0.000  0.000  0.059
tot    0.000  0.000  0.423  0.000  0.000  0.000  0.000  0.000  0.000  0.423
 
band    10 # energy   -7.23055684 # occ.  2.00000000
 
ion      s     py     pz     px    dxy    dyz    dz2    dxz  x2-y2    tot
    1  0.031  0.024  0.000  0.071  0.000  0.000  0.000  0.000  0.000  0.125
    2  0.031  0.024  0.000  0.071  0.000  0.000  0.000  0.000  0.000  0.125
    3  0.016  0.036  0.000  0.108  0.000  0.000  0.000  0.000  0.000  0.159
    4  0.001  0.023  0.000  0.012  0.000  0.000  0.000  0.000  0.000  0.036
    5  0.001  0.029  0.000  0.006  0.000  0.000  0.000  0.000  0.000  0.036
    6  0.001  0.029  0.000  0.006  0.000  0.000  0.000  0.000  0.000  0.036
    7  0.001  0.023  0.000  0.012  0.000  0.000  0.000  0.000  0.000  0.036
    8  0.016  0.036  0.000  0.108  0.000  0.000  0.000  0.000  0.000  0.159
tot    0.098  0.224  0.000  0.393  0.000  0.000  0.000  0.000  0.000  0.714
 
band    11 # energy   -5.64924392 # occ.  2.00000000
 
ion      s     py     pz     px    dxy    dyz    dz2    dxz  x2-y2    tot
    1  0.000  0.080  0.000  0.027  0.000  0.000  0.000  0.000  0.000  0.107
    2  0.000  0.080  0.000  0.027  0.000  0.000  0.000  0.000  0.000  0.107
    3  0.000  0.031  0.000  0.010  0.000  0.000  0.000  0.000  0.000  0.041
    4  0.002  0.055  0.000  0.059  0.000  0.000  0.000  0.000  0.000  0.116
    5  0.002  0.107  0.000  0.007  0.000  0.000  0.000  0.000  0.000  0.116
    6  0.002  0.107  0.000  0.007  0.000  0.000  0.000  0.000  0.000  0.116
    7  0.002  0.055  0.000  0.059  0.000  0.000  0.000  0.000  0.000  0.116
    8  0.000  0.031  0.000  0.010  0.000  0.000  0.000  0.000  0.000  0.041
tot    0.006  0.546  0.000  0.206  0.000  0.000  0.000  0.000  0.000  0.758
 
band    12 # energy   -5.31658916 # occ.  2.00000000
 
ion      s     py     pz     px    dxy    dyz    dz2    dxz  x2-y2    tot
    1  0.000  0.000  0.032  0.000  0.000  0.000  0.000  0.000  0.000  0.032
    2  0.000  0.000  0.032  0.000  0.000  0.000  0.000  0.000  0.000  0.032
    3  0.000  0.000  0.103  0.000  0.000  0.000  0.000  0.000  0.000  0.103
    4  0.000  0.000  0.044  0.000  0.000  0.000  0.000  0.000  0.000  0.044
    5  0.000  0.000  0.044  0.000  0.000  0.000  0.000  0.000  0.000  0.044
    6  0.000  0.000  0.044  0.000  0.000  0.000  0.000  0.000  0.000  0.044
    7  0.000  0.000  0.044  0.000  0.000  0.000  0.000  0.000  0.000  0.044
    8  0.000  0.000  0.103  0.000  0.000  0.000  0.000  0.000  0.000  0.103
tot    0.000  0.000  0.444  0.000  0.000  0.000  0.000  0.000  0.000  0.444
 
band    13 # energy   -5.10106873 # occ.  2.00000000
 
ion      s     py     pz     px    dxy    dyz    dz2    dxz  x2-y2    tot
    1  0.023  0.025  0.000  0.073  0.000  0.000  0.000  0.000  0.000  0.121
    2  0.023  0.025  0.000  0.073  0.000  0.000  0.000  0.000  0.000  0.121
    3  0.009  0.021  0.000  0.064  0.000  0.000  0.000  0.000  0.000  0.095
    4  0.016  0.019  0.000  0.050  0.000  0.000  0.000  0.000  0.000  0.085
    5  0.016  0.017  0.000  0.052  0.000  0.000  0.000  0.000  0.000  0.085
    6  0.016  0.017  0.000  0.052  0.000  0.000  0.000  0.000  0.000  0.085
    7  0.016  0.019  0.000  0.050  0.000  0.000  0.000  0.000  0.000  0.085
    8  0.009  0.021  0.000  0.064  0.000  0.000  0.000  0.000  0.000  0.095
tot    0.128  0.163  0.000  0.479  0.000  0.000  0.000  0.000  0.000  0.771
 
band    14 # energy   -4.06791577 # occ.  2.00000000
 
ion      s     py     pz     px    dxy    dyz    dz2    dxz  x2-y2    tot
    1  0.000  0.000  0.000  0.000  0.000  0.000  0.000  0.000  0.000  0.000
    2  0.000  0.000  0.000  0.000  0.000  0.000  0.000  0.000  0.000  0.000
    3  0.000  0.000  0.000  0.000  0.000  0.000  0.000  0.000  0.000  0.000
    4  0.000  0.000  0.118  0.000  0.000  0.000  0.000  0.000  0.000  0.118
    5  0.000  0.000  0.118  0.000  0.000  0.000  0.000  0.000  0.000  0.118
    6  0.000  0.000  0.118  0.000  0.000  0.000  0.000  0.000  0.000  0.118
    7  0.000  0.000  0.118  0.000  0.000  0.000  0.000  0.000  0.000  0.118
    8  0.000  0.000  0.000  0.000  0.000  0.000  0.000  0.000  0.000  0.000
tot    0.000  0.000  0.473  0.000  0.000  0.000  0.000  0.000  0.000  0.473
 
band    15 # energy   -4.01252288 # occ.  2.00000000
 
ion      s     py     pz     px    dxy    dyz    dz2    dxz  x2-y2    tot
    1  0.000  0.093  0.000  0.031  0.000  0.000  0.000  0.000  0.000  0.123
    2  0.000  0.093  0.000  0.031  0.000  0.000  0.000  0.000  0.000  0.123
    3  0.000  0.066  0.000  0.022  0.000  0.000  0.000  0.000  0.000  0.088
    4  0.003  0.063  0.000  0.026  0.000  0.000  0.000  0.000  0.000  0.092
    5  0.003  0.071  0.000  0.019  0.000  0.000  0.000  0.000  0.000  0.092
    6  0.003  0.071  0.000  0.019  0.000  0.000  0.000  0.000  0.000  0.092
    7  0.003  0.063  0.000  0.026  0.000  0.000  0.000  0.000  0.000  0.092
    8  0.000  0.066  0.000  0.022  0.000  0.000  0.000  0.000  0.000  0.088
tot    0.010  0.585  0.000  0.195  0.000  0.000  0.000  0.000  0.000  0.791
 
band    16 # energy   -2.37551500 # occ.  0.00000000
 
ion      s     py     pz     px    dxy    dyz    dz2    dxz  x2-y2    tot
    1  0.000  0.000  0.116  0.000  0.000  0.000  0.000  0.000  0.000  0.116
    2  0.000  0.000  0.116  0.000  0.000  0.000  0.000  0.000  0.000  0.116
    3  0.000  0.000  0.099  0.000  0.000  0.000  0.000  0.000  0.000  0.099
    4  0.000  0.000  0.006  0.000  0.000  0.000  0.000  0.000  0.000  0.006
    5  0.000  0.000  0.006  0.000  0.000  0.000  0.000  0.000  0.000  0.006
    6  0.000  0.000  0.006  0.000  0.000  0.000  0.000  0.000  0.000  0.006
    7  0.000  0.000  0.006  0.000  0.000  0.000  0.000  0.000  0.000  0.006
    8  0.000  0.000  0.099  0.000  0.000  0.000  0.000  0.000  0.000  0.099
tot    0.000  0.000  0.456  0.000  0.000  0.000  0.000  0.000  0.000  0.456
 
band    17 # energy    1.08092009 # occ.  0.00000000
 
ion      s     py     pz     px    dxy    dyz    dz2    dxz  x2-y2    tot
    1  0.000  0.000  0.000  0.000  0.000  0.000  0.000  0.000  0.000  0.000
    2  0.000  0.000  0.000  0.000  0.000  0.000  0.000  0.000  0.000  0.000
    3  0.000  0.000  0.000  0.000  0.000  0.000  0.000  0.000  0.000  0.000
    4  0.000  0.000  0.124  0.000  0.000  0.000  0.000  0.000  0.000  0.124
    5  0.000  0.000  0.124  0.000  0.000  0.000  0.000  0.000  0.000  0.124
    6  0.000  0.000  0.124  0.000  0.000  0.000  0.000  0.000  0.000  0.124
    7  0.000  0.000  0.124  0.000  0.000  0.000  0.000  0.000  0.000  0.124
    8  0.000  0.000  0.000  0.000  0.000  0.000  0.000  0.000  0.000  0.000
tot    0.000  0.000  0.495  0.000  0.000  0.000  0.000  0.000  0.000  0.495
 
band    18 # energy    1.84259402 # occ.  0.00000000
 
ion      s     py     pz     px    dxy    dyz    dz2    dxz  x2-y2    tot
    1  0.000  0.000  0.116  0.000  0.000  0.000  0.000  0.000  0.000  0.116
    2  0.000  0.000  0.116  0.000  0.000  0.000  0.000  0.000  0.000  0.116
    3  0.000  0.000  0.115  0.000  0.000  0.000  0.000  0.000  0.000  0.115
    4  0.000  0.000  0.000  0.000  0.000  0.000  0.000  0.000  0.000  0.000
    5  0.000  0.000  0.000  0.000  0.000  0.000  0.000  0.000  0.000  0.000
    6  0.000  0.000  0.000  0.000  0.000  0.000  0.000  0.000  0.000  0.000
    7  0.000  0.000  0.000  0.000  0.000  0.000  0.000  0.000  0.000  0.000
    8  0.000  0.000  0.115  0.000  0.000  0.000  0.000  0.000  0.000  0.115
tot    0.000  0.000  0.464  0.000  0.000  0.000  0.000  0.000  0.000  0.464
 
band    19 # energy    2.20038477 # occ.  0.00000000
 
ion      s     py     pz     px    dxy    dyz    dz2    dxz  x2-y2    tot
    1  0.001  0.000  0.000  0.000  0.000  0.000  0.000  0.000  0.000  0.001
    2  0.001  0.000  0.000  0.000  0.000  0.000  0.000  0.000  0.000  0.001
    3  0.002  0.000  0.000  0.001  0.000  0.000  0.000  0.000  0.000  0.003
    4  0.003  0.000  0.000  0.001  0.000  0.000  0.000  0.000  0.000  0.004
    5  0.003  0.001  0.000  0.000  0.000  0.000  0.000  0.000  0.000  0.004
    6  0.003  0.001  0.000  0.000  0.000  0.000  0.000  0.000  0.000  0.004
    7  0.003  0.000  0.000  0.001  0.000  0.000  0.000  0.000  0.000  0.004
    8  0.002  0.000  0.000  0.001  0.000  0.000  0.000  0.000  0.000  0.003
tot    0.017  0.002  0.000  0.003  0.000  0.000  0.000  0.000  0.000  0.021
 
band    20 # energy    3.36970126 # occ.  0.00000000
 
ion      s     py     pz     px    dxy    dyz    dz2    dxz  x2-y2    tot
    1  0.000  0.000  0.016  0.000  0.000  0.000  0.000  0.000  0.000  0.016
    2  0.000  0.000  0.016  0.000  0.000  0.000  0.000  0.000  0.000  0.016
    3  0.000  0.000  0.021  0.000  0.000  0.000  0.000  0.000  0.000  0.021
    4  0.000  0.000  0.047  0.000  0.000  0.000  0.000  0.000  0.000  0.047
    5  0.000  0.000  0.047  0.000  0.000  0.000  0.000  0.000  0.000  0.047
    6  0.000  0.000  0.047  0.000  0.000  0.000  0.000  0.000  0.000  0.047
    7  0.000  0.000  0.047  0.000  0.000  0.000  0.000  0.000  0.000  0.047
    8  0.000  0.000  0.021  0.000  0.000  0.000  0.000  0.000  0.000  0.021
tot    0.000  0.000  0.261  0.000  0.000  0.000  0.000  0.000  0.000  0.261
 
band    21 # energy    3.93177581 # occ.  0.00000000
 
ion      s     py     pz     px    dxy    dyz    dz2    dxz  x2-y2    tot
    1  0.000  0.000  0.072  0.000  0.000  0.000  0.000  0.000  0.000  0.072
    2  0.000  0.000  0.072  0.000  0.000  0.000  0.000  0.000  0.000  0.072
    3  0.000  0.000  0.035  0.000  0.000  0.000  0.000  0.000  0.000  0.035
    4  0.000  0.000  0.024  0.000  0.000  0.000  0.000  0.000  0.000  0.024
    5  0.000  0.000  0.024  0.000  0.000  0.000  0.000  0.000  0.000  0.024
    6  0.000  0.000  0.024  0.000  0.000  0.000  0.000  0.000  0.000  0.024
    7  0.000  0.000  0.024  0.000  0.000  0.000  0.000  0.000  0.000  0.024
    8  0.000  0.000  0.035  0.000  0.000  0.000  0.000  0.000  0.000  0.035
tot    0.000  0.000  0.309  0.000  0.000  0.000  0.000  0.000  0.000  0.309
 
band    22 # energy    4.50474912 # occ.  0.00000000
 
ion      s     py     pz     px    dxy    dyz    dz2    dxz  x2-y2    tot
    1  0.000  0.000  0.000  0.000  0.000  0.000  0.000  0.000  0.000  0.000
    2  0.000  0.000  0.000  0.000  0.000  0.000  0.000  0.000  0.000  0.000
    3  0.001  0.000  0.000  0.001  0.000  0.000  0.000  0.000  0.000  0.002
    4  0.004  0.000  0.000  0.001  0.000  0.000  0.000  0.000  0.000  0.005
    5  0.004  0.001  0.000  0.000  0.000  0.000  0.000  0.000  0.000  0.005
    6  0.004  0.001  0.000  0.000  0.000  0.000  0.000  0.000  0.000  0.005
    7  0.004  0.000  0.000  0.001  0.000  0.000  0.000  0.000  0.000  0.005
    8  0.001  0.000  0.000  0.001  0.000  0.000  0.000  0.000  0.000  0.002
tot    0.018  0.002  0.000  0.005  0.000  0.000  0.000  0.000  0.000  0.026
 
band    23 # energy    4.63519784 # occ.  0.00000000
 
ion      s     py     pz     px    dxy    dyz    dz2    dxz  x2-y2    tot
    1  0.000  0.000  0.000  0.000  0.000  0.000  0.000  0.000  0.000  0.001
    2  0.000  0.000  0.000  0.000  0.000  0.000  0.000  0.000  0.000  0.001
    3  0.001  0.000  0.000  0.001  0.000  0.000  0.000  0.000  0.000  0.003
    4  0.003  0.000  0.000  0.002  0.000  0.000  0.000  0.000  0.000  0.004
    5  0.003  0.001  0.000  0.001  0.000  0.000  0.000  0.000  0.000  0.004
    6  0.003  0.001  0.000  0.001  0.000  0.000  0.000  0.000  0.000  0.004
    7  0.003  0.000  0.000  0.002  0.000  0.000  0.000  0.000  0.000  0.004
    8  0.001  0.000  0.000  0.001  0.000  0.000  0.000  0.000  0.000  0.003
tot    0.013  0.004  0.000  0.009  0.000  0.000  0.000  0.000  0.000  0.026
 
band    24 # energy    5.94227867 # occ.  0.00000000
 
ion      s     py     pz     px    dxy    dyz    dz2    dxz  x2-y2    tot
    1  0.000  0.000  0.008  0.000  0.000  0.000  0.000  0.000  0.000  0.008
    2  0.000  0.000  0.008  0.000  0.000  0.000  0.000  0.000  0.000  0.008
    3  0.000  0.000  0.004  0.000  0.000  0.000  0.000  0.000  0.000  0.004
    4  0.000  0.000  0.012  0.000  0.000  0.000  0.000  0.000  0.000  0.012
    5  0.000  0.000  0.012  0.000  0.000  0.000  0.000  0.000  0.000  0.012
    6  0.000  0.000  0.012  0.000  0.000  0.000  0.000  0.000  0.000  0.012
    7  0.000  0.000  0.012  0.000  0.000  0.000  0.000  0.000  0.000  0.012
    8  0.000  0.000  0.004  0.000  0.000  0.000  0.000  0.000  0.000  0.004
tot    0.000  0.000  0.074  0.000  0.000  0.000  0.000  0.000  0.000  0.074
 

 k-point     2 :   -0.32446154 0.64989744 0.00000000     weight = 0.00833333

band     1 # energy  -18.86313358 # occ.  2.00000000
 
ion      s     py     pz     px    dxy    dyz    dz2    dxz  x2-y2    tot
    1  0.015  0.001  0.000  0.004  0.000  0.000  0.000  0.000  0.000  0.020
    2  0.015  0.001  0.000  0.004  0.000  0.000  0.000  0.000  0.000  0.020
    3  0.086  0.002  0.000  0.007  0.000  0.000  0.000  0.000  0.000  0.095
    4  0.098  0.001  0.000  0.006  0.000  0.000  0.000  0.000  0.000  0.106
    5  0.097  0.007  0.000  0.000  0.000  0.000  0.000  0.000  0.000  0.105
    6  0.097  0.007  0.000  0.000  0.000  0.000  0.000  0.000  0.000  0.105
    7  0.098  0.001  0.000  0.006  0.000  0.000  0.000  0.000  0.000  0.106
    8  0.086  0.002  0.000  0.007  0.000  0.000  0.000  0.000  0.000  0.095
tot    0.593  0.024  0.000  0.034  0.000  0.000  0.000  0.000  0.000  0.651
 
band     2 # energy  -16.60350207 # occ.  2.00000000
 
ion      s     py     pz     px    dxy    dyz    dz2    dxz  x2-y2    tot
    1  0.037  0.001  0.000  0.006  0.000  0.000  0.000  0.000  0.000  0.045
    2  0.037  0.001  0.000  0.006  0.000  0.000  0.000  0.000  0.000  0.045
    3  0.156  0.001  0.000  0.003  0.000  0.000  0.000  0.000  0.000  0.159
    4  0.043  0.012  0.000  0.006  0.000  0.000  0.000  0.000  0.000  0.061
    5  0.051  0.001  0.000  0.016  0.000  0.000  0.000  0.000  0.000  0.069
    6  0.051  0.001  0.000  0.016  0.000  0.000  0.000  0.000  0.000  0.069
    7  0.043  0.012  0.000  0.006  0.000  0.000  0.000  0.000  0.000  0.061
    8  0.156  0.001  0.000  0.003  0.000  0.000  0.000  0.000  0.000  0.159
tot    0.574  0.032  0.000  0.062  0.000  0.000  0.000  0.000  0.000  0.668
 
band     3 # energy  -15.74616939 # occ.  2.00000000
 
ion      s     py     pz     px    dxy    dyz    dz2    dxz  x2-y2    tot
    1  0.001  0.018  0.000  0.005  0.000  0.000  0.000  0.000  0.000  0.024
    2  0.001  0.018  0.000  0.005  0.000  0.000  0.000  0.000  0.000  0.024
    3  0.000  0.027  0.000  0.008  0.000  0.000  0.000  0.000  0.000  0.035
    4  0.143  0.001  0.000  0.005  0.000  0.000  0.000  0.000  0.000  0.149
    5  0.133  0.003  0.000  0.004  0.000  0.000  0.000  0.000  0.000  0.140
    6  0.133  0.003  0.000  0.004  0.000  0.000  0.000  0.000  0.000  0.140
    7  0.143  0.001  0.000  0.005  0.000  0.000  0.000  0.000  0.000  0.149
    8  0.000  0.027  0.000  0.008  0.000  0.000  0.000  0.000  0.000  0.035
tot    0.555  0.097  0.000  0.045  0.000  0.000  0.000  0.000  0.000  0.697
 
band     4 # energy  -13.43100552 # occ.  2.00000000
 
ion      s     py     pz     px    dxy    dyz    dz2    dxz  x2-y2    tot
    1  0.081  0.001  0.000  0.006  0.000  0.000  0.000  0.000  0.000  0.088
    2  0.081  0.001  0.000  0.006  0.000  0.000  0.000  0.000  0.000  0.088
    3  0.102  0.000  0.000  0.000  0.000  0.000  0.000  0.000  0.000  0.102
    4  0.015  0.055  0.000  0.001  0.000  0.000  0.000  0.000  0.000  0.071
    5  0.017  0.014  0.000  0.041  0.000  0.000  0.000  0.000  0.000  0.072
    6  0.017  0.014  0.000  0.041  0.000  0.000  0.000  0.000  0.000  0.072
    7  0.015  0.055  0.000  0.001  0.000  0.000  0.000  0.000  0.000  0.071
    8  0.102  0.000  0.000  0.000  0.000  0.000  0.000  0.000  0.000  0.102
tot    0.427  0.142  0.000  0.096  0.000  0.000  0.000  0.000  0.000  0.665
 
band     5 # energy  -11.80908577 # occ.  2.00000000
 
ion      s     py     pz     px    dxy    dyz    dz2    dxz  x2-y2    tot
    1  0.001  0.026  0.000  0.012  0.000  0.000  0.000  0.000  0.000  0.039
    2  0.001  0.026  0.000  0.012  0.000  0.000  0.000  0.000  0.000  0.039
    3  0.000  0.061  0.000  0.027  0.000  0.000  0.000  0.000  0.000  0.088
    4  0.081  0.011  0.000  0.022  0.000  0.000  0.000  0.000  0.000  0.114
    5  0.081  0.002  0.000  0.030  0.000  0.000  0.000  0.000  0.000  0.113
    6  0.081  0.002  0.000  0.030  0.000  0.000  0.000  0.000  0.000  0.113
    7  0.081  0.011  0.000  0.022  0.000  0.000  0.000  0.000  0.000  0.114
    8  0.000  0.061  0.000  0.027  0.000  0.000  0.000  0.000  0.000  0.088
tot    0.328  0.198  0.000  0.181  0.000  0.000  0.000  0.000  0.000  0.707
 
band     6 # energy  -10.21254984 # occ.  2.00000000
 
ion      s     py     pz     px    dxy    dyz    dz2    dxz  x2-y2    tot
    1  0.093  0.007  0.000  0.011  0.000  0.000  0.000  0.000  0.000  0.111
    2  0.093  0.007  0.000  0.011  0.000  0.000  0.000  0.000  0.000  0.111
    3  0.037  0.023  0.000  0.046  0.000  0.000  0.000  0.000  0.000  0.106
    4  0.002  0.021  0.000  0.035  0.000  0.000  0.000  0.000  0.000  0.057
    5  0.001  0.053  0.000  0.008  0.000  0.000  0.000  0.000  0.000  0.062
    6  0.001  0.053  0.000  0.008  0.000  0.000  0.000  0.000  0.000  0.062
    7  0.002  0.021  0.000  0.035  0.000  0.000  0.000  0.000  0.000  0.057
    8  0.037  0.023  0.000  0.046  0.000  0.000  0.000  0.000  0.000  0.106
tot    0.266  0.208  0.000  0.199  0.000  0.000  0.000  0.000  0.000  0.673
 
band     7 # energy   -8.82508473 # occ.  2.00000000
 
ion      s     py     pz     px    dxy    dyz    dz2    dxz  x2-y2    tot
    1  0.001  0.015  0.000  0.001  0.000  0.000  0.000  0.000  0.000  0.018
    2  0.001  0.015  0.000  0.001  0.000  0.000  0.000  0.000  0.000  0.018
    3  0.001  0.067  0.000  0.017  0.000  0.000  0.000  0.000  0.000  0.086
    4  0.011  0.067  0.000  0.050  0.000  0.000  0.000  0.000  0.000  0.128
    5  0.007  0.014  0.000  0.105  0.000  0.000  0.000  0.000  0.000  0.127
    6  0.007  0.014  0.000  0.105  0.000  0.000  0.000  0.000  0.000  0.127
    7  0.011  0.067  0.000  0.050  0.000  0.000  0.000  0.000  0.000  0.128
    8  0.001  0.067  0.000  0.017  0.000  0.000  0.000  0.000  0.000  0.086
tot    0.041  0.327  0.000  0.347  0.000  0.000  0.000  0.000  0.000  0.716
 
band     8 # energy   -8.67989111 # occ.  2.00000000
 
ion      s     py     pz     px    dxy    dyz    dz2    dxz  x2-y2    tot
    1  0.095  0.011  0.000  0.036  0.000  0.000  0.000  0.000  0.000  0.142
    2  0.095  0.011  0.000  0.036  0.000  0.000  0.000  0.000  0.000  0.142
    3  0.031  0.007  0.000  0.007  0.000  0.000  0.000  0.000  0.000  0.044
    4  0.024  0.015  0.000  0.054  0.000  0.000  0.000  0.000  0.000  0.093
    5  0.028  0.027  0.000  0.030  0.000  0.000  0.000  0.000  0.000  0.085
    6  0.028  0.027  0.000  0.030  0.000  0.000  0.000  0.000  0.000  0.085
    7  0.024  0.015  0.000  0.054  0.000  0.000  0.000  0.000  0.000  0.093
    8  0.031  0.007  0.000  0.007  0.000  0.000  0.000  0.000  0.000  0.044
tot    0.354  0.121  0.000  0.254  0.000  0.000  0.000  0.000  0.000  0.729
 
band     9 # energy   -7.41005724 # occ.  2.00000000
 
ion      s     py     pz     px    dxy    dyz    dz2    dxz  x2-y2    tot
    1  0.000  0.000  0.024  0.000  0.000  0.000  0.000  0.000  0.000  0.024
    2  0.000  0.000  0.024  0.000  0.000  0.000  0.000  0.000  0.000  0.024
    3  0.000  0.000  0.059  0.000  0.000  0.000  0.000  0.000  0.000  0.059
    4  0.000  0.000  0.065  0.000  0.000  0.000  0.000  0.000  0.000  0.065
    5  0.000  0.000  0.064  0.000  0.000  0.000  0.000  0.000  0.000  0.064
    6  0.000  0.000  0.064  0.000  0.000  0.000  0.000  0.000  0.000  0.064
    7  0.000  0.000  0.065  0.000  0.000  0.000  0.000  0.000  0.000  0.065
    8  0.000  0.000  0.059  0.000  0.000  0.000  0.000  0.000  0.000  0.059
tot    0.000  0.000  0.424  0.000  0.000  0.000  0.000  0.000  0.000  0.424
 
band    10 # energy   -7.24987547 # occ.  2.00000000
 
ion      s     py     pz     px    dxy    dyz    dz2    dxz  x2-y2    tot
    1  0.031  0.023  0.000  0.071  0.000  0.000  0.000  0.000  0.000  0.125
    2  0.031  0.023  0.000  0.071  0.000  0.000  0.000  0.000  0.000  0.125
    3  0.015  0.027  0.000  0.117  0.000  0.000  0.000  0.000  0.000  0.160
    4  0.002  0.016  0.000  0.014  0.000  0.000  0.000  0.000  0.000  0.032
    5  0.001  0.028  0.000  0.012  0.000  0.000  0.000  0.000  0.000  0.041
    6  0.001  0.028  0.000  0.012  0.000  0.000  0.000  0.000  0.000  0.041
    7  0.002  0.016  0.000  0.014  0.000  0.000  0.000  0.000  0.000  0.032
    8  0.015  0.027  0.000  0.117  0.000  0.000  0.000  0.000  0.000  0.160
tot    0.098  0.188  0.000  0.427  0.000  0.000  0.000  0.000  0.000  0.714
 
band    11 # energy   -5.65526032 # occ.  2.00000000
 
ion      s     py     pz     px    dxy    dyz    dz2    dxz  x2-y2    tot
    1  0.000  0.082  0.000  0.024  0.000  0.000  0.000  0.000  0.000  0.106
    2  0.000  0.082  0.000  0.024  0.000  0.000  0.000  0.000  0.000  0.106
    3  0.000  0.034  0.000  0.008  0.000  0.000  0.000  0.000  0.000  0.042
    4  0.001  0.055  0.000  0.060  0.000  0.000  0.000  0.000  0.000  0.116
    5  0.002  0.106  0.000  0.007  0.000  0.000  0.000  0.000  0.000  0.115
    6  0.002  0.106  0.000  0.007  0.000  0.000  0.000  0.000  0.000  0.115
    7  0.001  0.055  0.000  0.060  0.000  0.000  0.000  0.000  0.000  0.116
    8  0.000  0.034  0.000  0.008  0.000  0.000  0.000  0.000  0.000  0.042
tot    0.007  0.554  0.000  0.196  0.000  0.000  0.000  0.000  0.000  0.758
 
band    12 # energy   -5.34096650 # occ.  2.00000000
 
ion      s     py     pz     px    dxy    dyz    dz2    dxz  x2-y2    tot
    1  0.000  0.000  0.032  0.000  0.000  0.000  0.000  0.000  0.000  0.032
    2  0.000  0.000  0.032  0.000  0.000  0.000  0.000  0.000  0.000  0.032
    3  0.000  0.000  0.103  0.000  0.000  0.000  0.000  0.000  0.000  0.103
    4  0.000  0.000  0.041  0.000  0.000  0.000  0.000  0.000  0.000  0.041
    5  0.000  0.000  0.046  0.000  0.000  0.000  0.000  0.000  0.000  0.046
    6  0.000  0.000  0.046  0.000  0.000  0.000  0.000  0.000  0.000  0.046
    7  0.000  0.000  0.041  0.000  0.000  0.000  0.000  0.000  0.000  0.041
    8  0.000  0.000  0.103  0.000  0.000  0.000  0.000  0.000  0.000  0.103
tot    0.000  0.000  0.443  0.000  0.000  0.000  0.000  0.000  0.000  0.443
 
band    13 # energy   -5.14295143 # occ.  2.00000000
 
ion      s     py     pz     px    dxy    dyz    dz2    dxz  x2-y2    tot
    1  0.023  0.020  0.000  0.078  0.000  0.000  0.000  0.000  0.000  0.121
    2  0.023  0.020  0.000  0.078  0.000  0.000  0.000  0.000  0.000  0.121
    3  0.010  0.022  0.000  0.063  0.000  0.000  0.000  0.000  0.000  0.095