 running on   12 total cores
 distrk:  each k-point on   12 cores,    1 groups
 distr:  one band on    1 cores,   12 groups
 using from now: INCAR     
 vasp.5.4.4.18Apr17-6-g9f103f2a35 (build Mar 30 2023 15:39:25) complex          
  
 POSCAR found type information on POSCAR  B  C 
 POSCAR found :  2 types and       8 ions
 scaLAPACK will be used

 ----------------------------------------------------------------------------- 
|                                                                             |
|           W    W    AA    RRRRR   N    N  II  N    N   GGGG   !!!           |
|           W    W   A  A   R    R  NN   N  II  NN   N  G    G  !!!           |
|           W    W  A    A  R    R  N N  N  II  N N  N  G       !!!           |
|           W WW W  AAAAAA  RRRRR   N  N N  II  N  N N  G  GGG   !            |
|           WW  WW  A    A  R   R   N   NN  II  N   NN  G    G                |
|           W    W  A    A  R    R  N    N  II  N    N   GGGG   !!!           |
|                                                                             |
|      For optimal performance we recommend to set                            |
|        NCORE= 4 - approx SQRT( number of cores)                             |
|      NCORE specifies how many cores store one orbital (NPAR=cpu/NCORE).     |
|      This setting can  greatly improve the performance of VASP for DFT.     |
|      The default,   NCORE=1            might be grossly inefficient         |
|      on modern multi-core architectures or massively parallel machines.     |
|      Do your own testing !!!!                                               |
|      Unfortunately you need to use the default for GW and RPA calculations. |
|      (for HF NCORE is supported but not extensively tested yet)             |
|                                                                             |
 ----------------------------------------------------------------------------- 

 LDA part: xc-table for Pade appr. of Perdew
 WARNING: stress and forces are not correct
 POSCAR, INCAR and KPOINTS ok, starting setup
 FFT: planning ...
 WAVECAR not read
 charge-density read from file: BC3                                     
 entering main loop
       N       E                     dE             d eps       ncg     rms          rms(c)
DAV:   1     0.139336562277E+03    0.13934E+03   -0.10515E+04  5760   0.862E+02
DAV:   2    -0.463151227848E+02   -0.18565E+03   -0.17038E+03  8772   0.171E+02
DAV:   3    -0.659038224080E+02   -0.19589E+02   -0.19396E+02  6876   0.666E+01
DAV:   4    -0.662596008426E+02   -0.35578E+00   -0.35546E+00  7980   0.107E+01
DAV:   5    -0.662684015980E+02   -0.88008E-02   -0.87993E-02  7512   0.154E+00
DAV:   6    -0.662688088249E+02   -0.40723E-03   -0.40722E-03  9024   0.331E-01
DAV:   7    -0.662688172280E+02   -0.84031E-05   -0.84028E-05  8160   0.368E-02
DAV:   8    -0.662688174937E+02   -0.26567E-06   -0.26573E-06  7692   0.535E-03
   1 F= -.66268817E+02 E0= -.66268817E+02  d E =-.207782E-06
 writing wavefunctions
