cd Si                                   
   5.50000000000000     
     0.000000    0.500000    0.500000
     0.500000    0.000000    0.500000
     0.500000    0.500000    0.000000
   Si
     2
Direct
  0.875000  0.875000  0.875000
  0.125000  0.125000  0.125000
 
   40   40   40
 0.22790428507E+02 0.22758195313E+02 0.22639589444E+02 0.22378359367E+02 0.21876215286E+02
 0.21027347216E+02 0.19837912662E+02 0.18456189090E+02 0.17143558864E+02 0.16197486017E+02
 0.15852497818E+02 0.16197483659E+02 0.17143554420E+02 0.18456183050E+02 0.19837905640E+02
 0.21027339836E+02 0.21876208065E+02 0.22378352624E+02 0.22639583276E+02 0.22758189591E+02
 0.22790422953E+02 0.22758189591E+02 0.22639583276E+02 0.22378352624E+02 0.21876208065E+02
 0.21027339836E+02 0.19837905640E+02 0.18456183050E+02 0.17143554420E+02 0.16197483659E+02
 0.15852497818E+02 0.16197486017E+02 0.17143558864E+02 0.18456189090E+02 0.19837912662E+02
 0.21027347216E+02 0.21876215286E+02 0.22378359367E+02 0.22639589444E+02 0.22758195313E+02
 0.22758195313E+02 0.22963411784E+02 0.23012522868E+02 0.22760416753E+02 0.22034316237E+02
 0.20781742306E+02 0.19125698274E+02 0.17356967442E+02 0.15861746758E+02 0.15003962143E+02
 0.15003961964E+02 0.15861745962E+02 0.17356965371E+02 0.19125694201E+02 0.20781735826E+02
 0.22034307558E+02 0.22760406755E+02 0.23012512877E+02 0.22963403167E+02 0.22758189003E+02
 0.22467563484E+02 0.22120343355E+02 0.21703190699E+02 0.21177270387E+02 0.20494367194E+02
 0.19608086604E+02 0.18558385212E+02 0.17487066414E+02 0.16598985343E+02 0.16093677621E+02
 0.16093679468E+02 0.16598990395E+02 0.17487073371E+02 0.18558392419E+02 0.19608092613E+02
 0.20494371257E+02 0.21177272667E+02 0.21703192162E+02 0.22120345378E+02 0.22467567319E+02
 0.22639589444E+02 0.23012522868E+02 0.23064767256E+02 0.22556708449E+02 0.21358023541E+02
 0.19531856581E+02 0.17357190214E+02 0.15276206256E+02 0.13773680525E+02 0.13225638553E+02
 0.13773682322E+02 0.15276208665E+02 0.17357191359E+02 0.19531854680E+02 0.21358017677E+02
 0.22556699027E+02 0.23064755958E+02 0.23012512100E+02 0.22639581506E+02 0.22120341630E+02
 0.21533225701E+02 0.20911694670E+02 0.20251555166E+02 0.19531456677E+02 0.18738942299E+02
 0.17878185492E+02 0.17000339013E+02 0.16219107153E+02 0.15673756975E+02 0.15477500871E+02
 0.15673760907E+02 0.16219113643E+02 0.17000345837E+02 0.17878190425E+02 0.18738943969E+02
 0.19531455084E+02 0.20251551704E+02 0.20911691605E+02 0.21533225317E+02 0.22120345378E+02
 0.22378359367E+02 0.22760416753E+02 0.22556708449E+02 0.21551581786E+02 0.19720054481E+02
 0.17283456093E+02 0.14688796306E+02 0.12503944182E+02 0.11253924842E+02 0.11253926770E+02
 0.12503949108E+02 0.14688801987E+02 0.17283459772E+02 0.19720053976E+02 0.21551576360E+02
 0.22556699143E+02 0.22760406050E+02 0.22378350311E+02 0.21703187260E+02 0.20911691930E+02
 0.20082757132E+02 0.19252013458E+02 0.18423578542E+02 0.17591152242E+02 0.16760293232E+02
 0.15962799979E+02 0.15253735999E+02 0.14710432513E+02 0.14413353070E+02 0.14413354972E+02
 0.14710437416E+02 0.15253741819E+02 0.15962804181E+02 0.16760293857E+02 0.17591148731E+02
 0.18423572016E+02 0.19252006351E+02 0.20082752305E+02 0.20911691605E+02 0.21703192162E+02
 0.21876215286E+02 0.22034316237E+02 0.21358023541E+02 0.19720054481E+02 0.17245153197E+02
 0.14327369190E+02 0.11557133325E+02 0.95672426466E+01 0.88432703618E+01 0.95672470998E+01
 0.11557140506E+02 0.14327376294E+02 0.17245157393E+02 0.19720053977E+02 0.21358018257E+02
 0.22034307843E+02 0.21876206598E+02 0.21177266614E+02 0.20251550278E+02 0.19252009910E+02
 0.18253121888E+02 0.17290221850E+02 0.16373512612E+02 0.15507080300E+02 0.14705292533E+02
 0.14000747933E+02 0.13441454316E+02 0.13079060903E+02 0.12953277777E+02 0.13079063757E+02
 0.13441458630E+02 0.14000751498E+02 0.14705293246E+02 0.15507077073E+02 0.16373505888E+02
 0.17290213535E+02 0.18253114695E+02 0.19252006351E+02 0.20251551704E+02 0.21177272667E+02
 0.21027347216E+02 0.20781742306E+02 0.19531856581E+02 0.17283456093E+02 0.14327369190E+02
 0.11207532669E+02 0.85965412702E+01 0.71080523546E+01 0.71080543961E+01 0.85965466397E+01
 0.11207539377E+02 0.14327374744E+02 0.17283458412E+02 0.19531854757E+02 0.20781736923E+02
 0.21027340130E+02 0.20494364911E+02 0.19531451630E+02 0.18423572561E+02 0.17290217782E+02
 0.16197855588E+02 0.15179151917E+02 0.14247202438E+02 0.13410984507E+02 0.12686351020E+02
 0.12099425192E+02 0.11682482171E+02 0.11465152781E+02 0.11465153834E+02 0.11682484774E+02
 0.12099427918E+02 0.12686352178E+02 0.13410982882E+02 0.14247197864E+02 0.15179145445E+02
 0.16197849160E+02 0.17290213535E+02 0.18423572016E+02 0.19531455084E+02 0.20494371257E+02
 0.19837912662E+02 0.19125698274E+02 0.17357190214E+02 0.14688796306E+02 0.11557133325E+02
 0.85965412702E+01 0.64765192865E+01 0.57064440355E+01 0.64765213527E+01 0.85965445425E+01
 0.11557136399E+02 0.14688797752E+02 0.17357189112E+02 0.19125694560E+02 0.19837907153E+02
 0.19608086731E+02 0.18738939241E+02 0.17591146268E+02 0.16373506028E+02 0.15179147682E+02
 0.14063810394E+02 0.13055280604E+02 0.12166105306E+02 0.11405243718E+02 0.10785042465E+02
 0.10322412131E+02 0.10035438394E+02 0.99380404319E+01 0.10035439485E+02 0.10322413727E+02
 0.10785043648E+02 0.11405243656E+02 0.12166103641E+02 0.13055277676E+02 0.14063807173E+02
 0.15179145445E+02 0.16373505888E+02 0.17591148731E+02 0.18738943969E+02 0.19608092613E+02
 0.18456189090E+02 0.17356967442E+02 0.15276206256E+02 0.12503944182E+02 0.95672426466E+01
 0.71080523546E+01 0.57064440355E+01 0.57064438353E+01 0.71080516694E+01 0.95672412611E+01
 0.12503941856E+02 0.15276202848E+02 0.17356963014E+02 0.18456183940E+02 0.18558387034E+02
 0.17878185363E+02 0.16760289604E+02 0.15507073916E+02 0.14247195834E+02 0.13055276570E+02
 0.11974791462E+02 0.11026779412E+02 0.10220318172E+02 0.95609899514E+01 0.90553739522E+01
 0.87115929298E+01 0.85373525739E+01 0.85373527321E+01 0.87115933434E+01 0.90553744709E+01
 0.95609904164E+01 0.10220318514E+02 0.11026779719E+02 0.11974791990E+02 0.13055277676E+02
 0.14247197864E+02 0.15507077073E+02 0.16760293857E+02 0.17878190425E+02 0.18558392419E+02
 0.17143558864E+02 0.15861746758E+02 0.13773680525E+02 0.11253924842E+02 0.88432703618E+01
 0.71080543961E+01 0.64765213527E+01 0.71080516694E+01 0.88432653781E+01 0.11253918405E+02
 0.13773673540E+02 0.15861739989E+02 0.17143552766E+02 0.17487068032E+02 0.17000341062E+02
 0.15962799656E+02 0.14705288730E+02 0.13410978340E+02 0.12166099279E+02 0.11026775904E+02
 0.10023608424E+02 0.91696371500E+01 0.84686465093E+01 0.79213516171E+01 0.75285661005E+01
 0.72918336109E+01 0.72127073540E+01 0.72918332163E+01 0.75285655921E+01 0.79213514514E+01
 0.84686471492E+01 0.91696388968E+01 0.10023611315E+02 0.11026779719E+02 0.12166103641E+02
 0.13410982882E+02 0.14705293246E+02 0.15962804181E+02 0.17000345837E+02 0.17487073371E+02
 0.16197486017E+02 0.15003962143E+02 0.13225638553E+02 0.11253926770E+02 0.95672470998E+01
 0.85965466397E+01 0.85965445425E+01 0.95672412611E+01 0.11253918405E+02 0.13225629256E+02
 0.15003953405E+02 0.16197478814E+02 0.16598984968E+02 0.16219109556E+02 0.15253738248E+02
 0.14000747627E+02 0.12686347560E+02 0.11405238395E+02 0.10220313211E+02 0.91696343891E+01
 0.82711165058E+01 0.75294320136E+01 0.69425727028E+01 0.65065237938E+01 0.62177221431E+01
 0.60738569511E+01 0.60738564333E+01 0.62177208707E+01 0.65065224988E+01 0.69425722812E+01
 0.75294331737E+01 0.82711194927E+01 0.91696388968E+01 0.10220318514E+02 0.11405243656E+02
 0.12686352178E+02 0.14000751498E+02 0.15253741819E+02 0.16219113643E+02 0.16598990395E+02
 0.15852497818E+02 0.15003961964E+02 0.13773682322E+02 0.12503949108E+02 0.11557140506E+02
 0.11207539377E+02 0.11557136399E+02 0.12503941856E+02 0.13773673540E+02 0.15003953405E+02
 0.15852490838E+02 0.16093674663E+02 0.15673758028E+02 0.14710435587E+02 0.13441456772E+02
 0.12099425209E+02 0.10785039850E+02 0.95609859468E+01 0.84686428842E+01 0.75294300691E+01
 0.67495639677E+01 0.61259772429E+01 0.56515630930E+01 0.53187856769E+01 0.51216171558E+01
 0.50563127575E+01 0.51216158208E+01 0.53187836252E+01 0.56515613175E+01 0.61259767209E+01
 0.67495652790E+01 0.75294331737E+01 0.84686471492E+01 0.95609904164E+01 0.10785043648E+02
 0.12099427918E+02 0.13441458630E+02 0.14710437416E+02 0.15673760907E+02 0.16093679468E+02
 0.16197483659E+02 0.15861745962E+02 0.15276208665E+02 0.14688801987E+02 0.14327376294E+02
 0.14327374744E+02 0.14688797752E+02 0.15276202848E+02 0.15861739989E+02 0.16197478814E+02
 0.16093674663E+02 0.15477499837E+02 0.14413355250E+02 0.13079064388E+02 0.11682484851E+02
 0.10322412752E+02 0.90553725207E+01 0.79213491191E+01 0.69425704032E+01 0.61259760150E+01
 0.54678530958E+01 0.49589051336E+01 0.45884277840E+01 0.43470306453E+01 0.42280379010E+01
 0.42280371528E+01 0.43470286879E+01 0.45884253676E+01 0.49589031789E+01 0.54678523376E+01
 0.61259767209E+01 0.69425722812E+01 0.79213514514E+01 0.90553744709E+01 0.10322413727E+02
 0.11682484774E+02 0.13079063757E+02 0.14413354972E+02 0.15477500871E+02 0.16093677621E+02
 0.17143554420E+02 0.17356965371E+02 0.17357191359E+02 0.17283459772E+02 0.17245157393E+02
 0.17283458412E+02 0.17357189112E+02 0.17356963014E+02 0.17143552766E+02 0.16598984968E+02
 0.15673758028E+02 0.14413355250E+02 0.12953280468E+02 0.11465156339E+02 0.10035441291E+02
 0.87115942874E+01 0.75285658954E+01 0.65065226428E+01 0.56515618266E+01 0.49589043878E+01
 0.44173043108E+01 0.40133053028E+01 0.37344304022E+01 0.35710598634E+01 0.35172653532E+01
 0.35710586819E+01 0.37344283993E+01 0.40133030597E+01 0.44173024065E+01 0.49589031789E+01
 0.56515613175E+01 0.65065224988E+01 0.75285655921E+01 0.87115933434E+01 0.10035439485E+02
 0.11465153834E+02 0.12953277777E+02 0.14413353070E+02 0.15673756975E+02 0.16598985343E+02
 0.18456183050E+02 0.19125694201E+02 0.19531854680E+02 0.19720053976E+02 0.19720053977E+02
 0.19531854757E+02 0.19125694560E+02 0.18456183940E+02 0.17487068032E+02 0.16219109556E+02
 0.14710435587E+02 0.13079064388E+02 0.11465156339E+02 0.99380437542E+01 0.85373556177E+01
 0.72918356181E+01 0.62177228775E+01 0.53187853997E+01 0.45884270603E+01 0.40133047354E+01
 0.35773468002E+01 0.32651399693E+01 0.30641500804E+01 0.29658023271E+01 0.29658019948E+01
 0.30641491473E+01 0.32651386006E+01 0.35773451983E+01 0.40133030597E+01 0.45884253676E+01
 0.53187836252E+01 0.62177208707E+01 0.72918332163E+01 0.85373527321E+01 0.99380404319E+01
 0.11465152781E+02 0.13079060903E+02 0.14710432513E+02 0.16219107153E+02 0.17487066414E+02
 0.19837905640E+02 0.20781735826E+02 0.21358017677E+02 0.21551576360E+02 0.21358018257E+02
 0.20781736923E+02 0.19837907153E+02 0.18558387034E+02 0.17000341062E+02 0.15253738248E+02
 0.13441456772E+02 0.11682484851E+02 0.10035441291E+02 0.85373556177E+01 0.72127104037E+01
 0.60738592920E+01 0.51216182838E+01 0.43470305934E+01 0.37344296785E+01 0.32651392973E+01
 0.29208844209E+01 0.26862398146E+01 0.25499311986E+01 0.25052343672E+01 0.25499312472E+01
 0.26862398018E+01 0.29208841637E+01 0.32651386006E+01 0.37344283993E+01 0.43470286879E+01
 0.51216158208E+01 0.60738564333E+01 0.72127073540E+01 0.85373525739E+01 0.10035438394E+02
 0.11682482171E+02 0.13441454316E+02 0.15253735999E+02 0.17000339013E+02 0.18558385212E+02
 0.21027339836E+02 0.22034307558E+02 0.22556699027E+02 0.22556699143E+02 0.22034307843E+02
 0.21027340130E+02 0.19608086731E+02 0.17878185363E+02 0.15962799656E+02 0.14000747627E+02
 0.12099425209E+02 0.10322412752E+02 0.87115942874E+01 0.72918356181E+01 0.60738592920E+01
 0.50563149728E+01 0.42280387801E+01 0.35710594107E+01 0.30641489253E+01 0.26862388610E+01
 0.24190384030E+01 0.22485438231E+01 0.21655472661E+01 0.21655476477E+01 0.22485448195E+01
 0.24190396228E+01 0.26862398018E+01 0.30641491473E+01 0.35710586819E+01 0.42280371528E+01
 0.50563127575E+01 0.60738569511E+01 0.72918336109E+01 0.87115929298E+01 0.10322412131E+02
 0.12099425192E+02 0.14000747933E+02 0.15962799979E+02 0.17878185492E+02 0.19608086604E+02
 0.21876208065E+02 0.22760406755E+02 0.23064755958E+02 0.22760406050E+02 0.21876206598E+02
 0.20494364911E+02 0.18738939241E+02 0.16760289604E+02 0.14705288730E+02 0.12686347560E+02
 0.10785039850E+02 0.90553725207E+01 0.75285658954E+01 0.62177228775E+01 0.51216182838E+01
 0.42280387801E+01 0.35172654514E+01 0.29658010678E+01 0.25499294251E+01 0.22485425682E+01
 0.20448832022E+01 0.19272118561E+01 0.18887252859E+01 0.19272130569E+01 0.20448852347E+01
 0.22485448195E+01 0.25499312472E+01 0.29658019948E+01 0.35172653532E+01 0.42280379010E+01
 0.51216171558E+01 0.62177221431E+01 0.75285661005E+01 0.90553739522E+01 0.10785042465E+02
 0.12686351020E+02 0.14705292533E+02 0.16760293232E+02 0.18738942299E+02 0.20494367194E+02
 0.22378352624E+02 0.23012512877E+02 0.23012512100E+02 0.22378350311E+02 0.21177266614E+02
 0.19531451630E+02 0.17591146268E+02 0.15507073916E+02 0.13410978340E+02 0.11405238395E+02
 0.95609859468E+01 0.79213491191E+01 0.65065226428E+01 0.53187853997E+01 0.43470305934E+01
 0.35710594107E+01 0.29658010678E+01 0.25052322490E+01 0.21655449885E+01 0.19272104420E+01
 0.17758849237E+01 0.17024169098E+01 0.17024176114E+01 0.17758868372E+01 0.19272130569E+01
 0.21655476477E+01 0.25052343672E+01 0.29658023271E+01 0.35710598634E+01 0.43470306453E+01
 0.53187856769E+01 0.65065237938E+01 0.79213516171E+01 0.95609899514E+01 0.11405243718E+02
 0.13410984507E+02 0.15507080300E+02 0.17591152242E+02 0.19531456677E+02 0.21177270387E+02
 0.22639583276E+02 0.22963403167E+02 0.22639581506E+02 0.21703187260E+02 0.20251550278E+02
 0.18423572561E+02 0.16373506028E+02 0.14247195834E+02 0.12166099279E+02 0.10220313211E+02
 0.84686428842E+01 0.69425704032E+01 0.56515618266E+01 0.45884270603E+01 0.37344296785E+01
 0.30641489253E+01 0.25499294251E+01 0.21655449885E+01 0.18887228802E+01 0.17024155911E+01
 0.15950126524E+01 0.15599187948E+01 0.15950138066E+01 0.17024176114E+01 0.18887252859E+01
 0.21655472661E+01 0.25499311986E+01 0.30641500804E+01 0.37344304022E+01 0.45884277840E+01
 0.56515630930E+01 0.69425727028E+01 0.84686465093E+01 0.10220318172E+02 0.12166105306E+02
 0.14247202438E+02 0.16373512612E+02 0.18423578542E+02 0.20251555166E+02 0.21703190699E+02
 0.22758189591E+02 0.22758189003E+02 0.22120341630E+02 0.20911691930E+02 0.19252009910E+02
 0.17290217782E+02 0.15179147682E+02 0.13055276570E+02 0.11026775904E+02 0.91696343891E+01
 0.75294300691E+01 0.61259760150E+01 0.49589043878E+01 0.40133047354E+01 0.32651392973E+01
 0.26862388610E+01 0.22485425682E+01 0.19272104420E+01 0.17024155911E+01 0.15599178558E+01
 0.14907868767E+01 0.14907872171E+01 0.15599187948E+01 0.17024169098E+01 0.19272118561E+01
 0.22485438231E+01 0.26862398146E+01 0.32651399693E+01 0.40133053028E+01 0.49589051336E+01
 0.61259772429E+01 0.75294320136E+01 0.91696371500E+01 0.11026779412E+02 0.13055280604E+02
 0.15179151917E+02 0.17290221850E+02 0.19252013458E+02 0.20911694670E+02 0.22120343355E+02
 0.22790422953E+02 0.22467563484E+02 0.21533225701E+02 0.20082757132E+02 0.18253121888E+02
 0.16197855588E+02 0.14063810394E+02 0.11974791462E+02 0.10023608424E+02 0.82711165058E+01
 0.67495639677E+01 0.54678530958E+01 0.44173043108E+01 0.35773468002E+01 0.29208844209E+01
 0.24190384030E+01 0.20448832022E+01 0.17758849237E+01 0.15950126524E+01 0.14907868767E+01
 0.14567356685E+01 0.14907868767E+01 0.15950126524E+01 0.17758849237E+01 0.20448832022E+01
 0.24190384030E+01 0.29208844209E+01 0.35773468002E+01 0.44173043108E+01 0.54678530958E+01
 0.67495639677E+01 0.82711165058E+01 0.10023608424E+02 0.11974791462E+02 0.14063810394E+02
 0.16197855588E+02 0.18253121888E+02 0.20082757132E+02 0.21533225701E+02 0.22467563484E+02
 0.22758189591E+02 0.22120343355E+02 0.20911694670E+02 0.19252013458E+02 0.17290221850E+02
 0.15179151917E+02 0.13055280604E+02 0.11026779412E+02 0.91696371500E+01 0.75294320136E+01
 0.61259772429E+01 0.49589051336E+01 0.40133053028E+01 0.32651399693E+01 0.26862398146E+01
 0.22485438231E+01 0.19272118561E+01 0.17024169098E+01 0.15599187948E+01 0.14907872171E+01
 0.14907868767E+01 0.15599178558E+01 0.17024155911E+01 0.19272104420E+01 0.22485425682E+01
 0.26862388610E+01 0.32651392973E+01 0.40133047354E+01 0.49589043878E+01 0.61259760150E+01
 0.75294300691E+01 0.91696343891E+01 0.11026775904E+02 0.13055276570E+02 0.15179147682E+02
 0.17290217782E+02 0.19252009910E+02 0.20911691930E+02 0.22120341630E+02 0.22758189003E+02
 0.22639583276E+02 0.21703190699E+02 0.20251555166E+02 0.18423578542E+02 0.16373512612E+02
 0.14247202438E+02 0.12166105306E+02 0.10220318172E+02 0.84686465093E+01 0.69425727028E+01
 0.56515630930E+01 0.45884277840E+01 0.37344304022E+01 0.30641500804E+01 0.25499311986E+01
 0.21655472661E+01 0.18887252859E+01 0.17024176114E+01 0.15950138066E+01 0.15599187948E+01
 0.15950126524E+01 0.17024155911E+01 0.18887228802E+01 0.21655449885E+01 0.25499294251E+01
 0.30641489253E+01 0.37344296785E+01 0.45884270603E+01 0.56515618266E+01 0.69425704032E+01
 0.84686428842E+01 0.10220313211E+02 0.12166099279E+02 0.14247195834E+02 0.16373506028E+02
 0.18423572561E+02 0.20251550278E+02 0.21703187260E+02 0.22639581506E+02 0.22963403167E+02
 0.22378352624E+02 0.21177270387E+02 0.19531456677E+02 0.17591152242E+02 0.15507080300E+02
 0.13410984507E+02 0.11405243718E+02 0.95609899514E+01 0.79213516171E+01 0.65065237938E+01
 0.53187856769E+01 0.43470306453E+01 0.35710598634E+01 0.29658023271E+01 0.25052343672E+01
 0.21655476477E+01 0.19272130569E+01 0.17758868372E+01 0.17024176114E+01 0.17024169098E+01
 0.17758849237E+01 0.19272104420E+01 0.21655449885E+01 0.25052322490E+01 0.29658010678E+01
 0.35710594107E+01 0.43470305934E+01 0.53187853997E+01 0.65065226428E+01 0.79213491191E+01
 0.95609859468E+01 0.11405238395E+02 0.13410978340E+02 0.15507073916E+02 0.17591146268E+02
 0.19531451630E+02 0.21177266614E+02 0.22378350311E+02 0.23012512100E+02 0.23012512877E+02
 0.21876208065E+02 0.20494367194E+02 0.18738942299E+02 0.16760293232E+02 0.14705292533E+02
 0.12686351020E+02 0.10785042465E+02 0.90553739522E+01 0.75285661005E+01 0.62177221431E+01
 0.51216171558E+01 0.42280379010E+01 0.35172653532E+01 0.29658019948E+01 0.25499312472E+01
 0.22485448195E+01 0.20448852347E+01 0.19272130569E+01 0.18887252859E+01 0.19272118561E+01
 0.20448832022E+01 0.22485425682E+01 0.25499294251E+01 0.29658010678E+01 0.35172654514E+01
 0.42280387801E+01 0.51216182838E+01 0.62177228775E+01 0.75285658954E+01 0.90553725207E+01
 0.10785039850E+02 0.12686347560E+02 0.14705288730E+02 0.16760289604E+02 0.18738939241E+02
 0.20494364911E+02 0.21876206598E+02 0.22760406050E+02 0.23064755958E+02 0.22760406755E+02
 0.21027339836E+02 0.19608086604E+02 0.17878185492E+02 0.15962799979E+02 0.14000747933E+02
 0.12099425192E+02 0.10322412131E+02 0.87115929298E+01 0.72918336109E+01 0.60738569511E+01
 0.50563127575E+01 0.42280371528E+01 0.35710586819E+01 0.30641491473E+01 0.26862398018E+01
 0.24190396228E+01 0.22485448195E+01 0.21655476477E+01 0.21655472661E+01 0.22485438231E+01
 0.24190384030E+01 0.26862388610E+01 0.30641489253E+01 0.35710594107E+01 0.42280387801E+01
 0.50563149728E+01 0.60738592920E+01 0.72918356181E+01 0.87115942874E+01 0.10322412752E+02
 0.12099425209E+02 0.14000747627E+02 0.15962799656E+02 0.17878185363E+02 0.19608086731E+02
 0.21027340130E+02 0.22034307843E+02 0.22556699143E+02 0.22556699027E+02 0.22034307558E+02
 0.19837905640E+02 0.18558385212E+02 0.17000339013E+02 0.15253735999E+02 0.13441454316E+02
 0.11682482171E+02 0.10035438394E+02 0.85373525739E+01 0.72127073540E+01 0.60738564333E+01
 0.51216158208E+01 0.43470286879E+01 0.37344283993E+01 0.32651386006E+01 0.29208841637E+01
 0.26862398018E+01 0.25499312472E+01 0.25052343672E+01 0.25499311986E+01 0.26862398146E+01
 0.29208844209E+01 0.32651392973E+01 0.37344296785E+01 0.43470305934E+01 0.51216182838E+01
 0.60738592920E+01 0.72127104037E+01 0.85373556177E+01 0.10035441291E+02 0.11682484851E+02
 0.13441456772E+02 0.15253738248E+02 0.17000341062E+02 0.18558387034E+02 0.19837907153E+02
 0.20781736923E+02 0.21358018257E+02 0.21551576360E+02 0.21358017677E+02 0.20781735826E+02
 0.18456183050E+02 0.17487066414E+02 0.16219107153E+02 0.14710432513E+02 0.13079060903E+02
 0.11465152781E+02 0.99380404319E+01 0.85373527321E+01 0.72918332163E+01 0.62177208707E+01
 0.53187836252E+01 0.45884253676E+01 0.40133030597E+01 0.35773451983E+01 0.32651386006E+01
 0.30641491473E+01 0.29658019948E+01 0.29658023271E+01 0.30641500804E+01 0.32651399693E+01
 0.35773468002E+01 0.40133047354E+01 0.45884270603E+01 0.53187853997E+01 0.62177228775E+01
 0.72918356181E+01 0.85373556177E+01 0.99380437542E+01 0.11465156339E+02 0.13079064388E+02
 0.14710435587E+02 0.16219109556E+02 0.17487068032E+02 0.18456183940E+02 0.19125694560E+02
 0.19531854757E+02 0.19720053977E+02 0.19720053976E+02 0.19531854680E+02 0.19125694201E+02
 0.17143554420E+02 0.16598985343E+02 0.15673756975E+02 0.14413353070E+02 0.12953277777E+02
 0.11465153834E+02 0.10035439485E+02 0.87115933434E+01 0.75285655921E+01 0.65065224988E+01
 0.56515613175E+01 0.49589031789E+01 0.44173024065E+01 0.40133030597E+01 0.37344283993E+01
 0.35710586819E+01 0.35172653532E+01 0.35710598634E+01 0.37344304022E+01 0.40133053028E+01
 0.44173043108E+01 0.49589043878E+01 0.56515618266E+01 0.65065226428E+01 0.75285658954E+01
 0.87115942874E+01 0.10035441291E+02 0.11465156339E+02 0.12953280468E+02 0.14413355250E+02
 0.15673758028E+02 0.16598984968E+02 0.17143552766E+02 0.17356963014E+02 0.17357189112E+02
 0.17283458412E+02 0.17245157393E+02 0.17283459772E+02 0.17357191359E+02 0.17356965371E+02
 0.16197483659E+02 0.16093677621E+02 0.15477500871E+02 0.14413354972E+02 0.13079063757E+02
 0.11682484774E+02 0.10322413727E+02 0.90553744709E+01 0.79213514514E+01 0.69425722812E+01
 0.61259767209E+01 0.54678523376E+01 0.49589031789E+01 0.45884253676E+01 0.43470286879E+01
 0.42280371528E+01 0.42280379010E+01 0.43470306453E+01 0.45884277840E+01 0.49589051336E+01
 0.54678530958E+01 0.61259760150E+01 0.69425704032E+01 0.79213491191E+01 0.90553725207E+01
 0.10322412752E+02 0.11682484851E+02 0.13079064388E+02 0.14413355250E+02 0.15477499837E+02
 0.16093674663E+02 0.16197478814E+02 0.15861739989E+02 0.15276202848E+02 0.14688797752E+02
 0.14327374744E+02 0.14327376294E+02 0.14688801987E+02 0.15276208665E+02 0.15861745962E+02
 0.15852497818E+02 0.16093679468E+02 0.15673760907E+02 0.14710437416E+02 0.13441458630E+02
 0.12099427918E+02 0.10785043648E+02 0.95609904164E+01 0.84686471492E+01 0.75294331737E+01
 0.67495652790E+01 0.61259767209E+01 0.56515613175E+01 0.53187836252E+01 0.51216158208E+01
 0.50563127575E+01 0.51216171558E+01 0.53187856769E+01 0.56515630930E+01 0.61259772429E+01
 0.67495639677E+01 0.75294300691E+01 0.84686428842E+01 0.95609859468E+01 0.10785039850E+02
 0.12099425209E+02 0.13441456772E+02 0.14710435587E+02 0.15673758028E+02 0.16093674663E+02
 0.15852490838E+02 0.15003953405E+02 0.13773673540E+02 0.12503941856E+02 0.11557136399E+02
 0.11207539377E+02 0.11557140506E+02 0.12503949108E+02 0.13773682322E+02 0.15003961964E+02
 0.16197486017E+02 0.16598990395E+02 0.16219113643E+02 0.15253741819E+02 0.14000751498E+02
 0.12686352178E+02 0.11405243656E+02 0.10220318514E+02 0.91696388968E+01 0.82711194927E+01
 0.75294331737E+01 0.69425722812E+01 0.65065224988E+01 0.62177208707E+01 0.60738564333E+01
 0.60738569511E+01 0.62177221431E+01 0.65065237938E+01 0.69425727028E+01 0.75294320136E+01
 0.82711165058E+01 0.91696343891E+01 0.10220313211E+02 0.11405238395E+02 0.12686347560E+02
 0.14000747627E+02 0.15253738248E+02 0.16219109556E+02 0.16598984968E+02 0.16197478814E+02
 0.15003953405E+02 0.13225629256E+02 0.11253918405E+02 0.95672412611E+01 0.85965445425E+01
 0.85965466397E+01 0.95672470998E+01 0.11253926770E+02 0.13225638553E+02 0.15003962143E+02
 0.17143558864E+02 0.17487073371E+02 0.17000345837E+02 0.15962804181E+02 0.14705293246E+02
 0.13410982882E+02 0.12166103641E+02 0.11026779719E+02 0.10023611315E+02 0.91696388968E+01
 0.84686471492E+01 0.79213514514E+01 0.75285655921E+01 0.72918332163E+01 0.72127073540E+01
 0.72918336109E+01 0.75285661005E+01 0.79213516171E+01 0.84686465093E+01 0.91696371500E+01
 0.10023608424E+02 0.11026775904E+02 0.12166099279E+02 0.13410978340E+02 0.14705288730E+02
 0.15962799656E+02 0.17000341062E+02 0.17487068032E+02 0.17143552766E+02 0.15861739989E+02
 0.13773673540E+02 0.11253918405E+02 0.88432653781E+01 0.71080516694E+01 0.64765213527E+01
 0.71080543961E+01 0.88432703618E+01 0.11253924842E+02 0.13773680525E+02 0.15861746758E+02
 0.18456189090E+02 0.18558392419E+02 0.17878190425E+02 0.16760293857E+02 0.15507077073E+02
 0.14247197864E+02 0.13055277676E+02 0.11974791990E+02 0.11026779719E+02 0.10220318514E+02
 0.95609904164E+01 0.90553744709E+01 0.87115933434E+01 0.85373527321E+01 0.85373525739E+01
 0.87115929298E+01 0.90553739522E+01 0.95609899514E+01 0.10220318172E+02 0.11026779412E+02
 0.11974791462E+02 0.13055276570E+02 0.14247195834E+02 0.15507073916E+02 0.16760289604E+02
 0.17878185363E+02 0.18558387034E+02 0.18456183940E+02 0.17356963014E+02 0.15276202848E+02
 0.12503941856E+02 0.95672412611E+01 0.71080516694E+01 0.57064438353E+01 0.57064440355E+01
 0.71080523546E+01 0.95672426466E+01 0.12503944182E+02 0.15276206256E+02 0.17356967442E+02
 0.19837912662E+02 0.19608092613E+02 0.18738943969E+02 0.17591148731E+02 0.16373505888E+02
 0.15179145445E+02 0.14063807173E+02 0.13055277676E+02 0.12166103641E+02 0.11405243656E+02
 0.10785043648E+02 0.10322413727E+02 0.10035439485E+02 0.99380404319E+01 0.10035438394E+02
 0.10322412131E+02 0.10785042465E+02 0.11405243718E+02 0.12166105306E+02 0.13055280604E+02
 0.14063810394E+02 0.15179147682E+02 0.16373506028E+02 0.17591146268E+02 0.18738939241E+02
 0.19608086731E+02 0.19837907153E+02 0.19125694560E+02 0.17357189112E+02 0.14688797752E+02
 0.11557136399E+02 0.85965445425E+01 0.64765213527E+01 0.57064440355E+01 0.64765192865E+01
 0.85965412702E+01 0.11557133325E+02 0.14688796306E+02 0.17357190214E+02 0.19125698274E+02
 0.21027347216E+02 0.20494371257E+02 0.19531455084E+02 0.18423572016E+02 0.17290213535E+02
 0.16197849160E+02 0.15179145445E+02 0.14247197864E+02 0.13410982882E+02 0.12686352178E+02
 0.12099427918E+02 0.11682484774E+02 0.11465153834E+02 0.11465152781E+02 0.11682482171E+02
 0.12099425192E+02 0.12686351020E+02 0.13410984507E+02 0.14247202438E+02 0.15179151917E+02
 0.16197855588E+02 0.17290217782E+02 0.18423572561E+02 0.19531451630E+02 0.20494364911E+02
 0.21027340130E+02 0.20781736923E+02 0.19531854757E+02 0.17283458412E+02 0.14327374744E+02
 0.11207539377E+02 0.85965466397E+01 0.71080543961E+01 0.71080523546E+01 0.85965412702E+01
 0.11207532669E+02 0.14327369190E+02 0.17283456093E+02 0.19531856581E+02 0.20781742306E+02
 0.21876215286E+02 0.21177272667E+02 0.20251551704E+02 0.19252006351E+02 0.18253114695E+02
 0.17290213535E+02 0.16373505888E+02 0.15507077073E+02 0.14705293246E+02 0.14000751498E+02
 0.13441458630E+02 0.13079063757E+02 0.12953277777E+02 0.13079060903E+02 0.13441454316E+02
 0.14000747933E+02 0.14705292533E+02 0.15507080300E+02 0.16373512612E+02 0.17290221850E+02
 0.18253121888E+02 0.19252009910E+02 0.20251550278E+02 0.21177266614E+02 0.21876206598E+02
 0.22034307843E+02 0.21358018257E+02 0.19720053977E+02 0.17245157393E+02 0.14327376294E+02
 0.11557140506E+02 0.95672470998E+01 0.88432703618E+01 0.95672426466E+01 0.11557133325E+02
 0.14327369190E+02 0.17245153197E+02 0.19720054481E+02 0.21358023541E+02 0.22034316237E+02
 0.22378359367E+02 0.21703192162E+02 0.20911691605E+02 0.20082752305E+02 0.19252006351E+02
 0.18423572016E+02 0.17591148731E+02 0.16760293857E+02 0.15962804181E+02 0.15253741819E+02
 0.14710437416E+02 0.14413354972E+02 0.14413353070E+02 0.14710432513E+02 0.15253735999E+02
 0.15962799979E+02 0.16760293232E+02 0.17591152242E+02 0.18423578542E+02 0.19252013458E+02
 0.20082757132E+02 0.20911691930E+02 0.21703187260E+02 0.22378350311E+02 0.22760406050E+02
 0.22556699143E+02 0.21551576360E+02 0.19720053976E+02 0.17283459772E+02 0.14688801987E+02
 0.12503949108E+02 0.11253926770E+02 0.11253924842E+02 0.12503944182E+02 0.14688796306E+02
 0.17283456093E+02 0.19720054481E+02 0.21551581786E+02 0.22556708449E+02 0.22760416753E+02
 0.22639589444E+02 0.22120345378E+02 0.21533225317E+02 0.20911691605E+02 0.20251551704E+02
 0.19531455084E+02 0.18738943969E+02 0.17878190425E+02 0.17000345837E+02 0.16219113643E+02
 0.15673760907E+02 0.15477500871E+02 0.15673756975E+02 0.16219107153E+02 0.17000339013E+02
 0.17878185492E+02 0.18738942299E+02 0.19531456677E+02 0.20251555166E+02 0.20911694670E+02
 0.21533225701E+02 0.22120341630E+02 0.22639581506E+02 0.23012512100E+02 0.23064755958E+02
 0.22556699027E+02 0.21358017677E+02 0.19531854680E+02 0.17357191359E+02 0.15276208665E+02
 0.13773682322E+02 0.13225638553E+02 0.13773680525E+02 0.15276206256E+02 0.17357190214E+02
 0.19531856581E+02 0.21358023541E+02 0.22556708449E+02 0.23064767256E+02 0.23012522868E+02
 0.22758195313E+02 0.22467567319E+02 0.22120345378E+02 0.21703192162E+02 0.21177272667E+02
 0.20494371257E+02 0.19608092613E+02 0.18558392419E+02 0.17487073371E+02 0.16598990395E+02
 0.16093679468E+02 0.16093677621E+02 0.16598985343E+02 0.17487066414E+02 0.18558385212E+02
 0.19608086604E+02 0.20494367194E+02 0.21177270387E+02 0.21703190699E+02 0.22120343355E+02
 0.22467563484E+02 0.22758189003E+02 0.22963403167E+02 0.23012512877E+02 0.22760406755E+02
 0.22034307558E+02 0.20781735826E+02 0.19125694201E+02 0.17356965371E+02 0.15861745962E+02
 0.15003961964E+02 0.15003962143E+02 0.15861746758E+02 0.17356967442E+02 0.19125698274E+02
 0.20781742306E+02 0.22034316237E+02 0.22760416753E+02 0.23012522868E+02 0.22963411784E+02
 0.22758195313E+02 0.22963411784E+02 0.23012522868E+02 0.22760416753E+02 0.22034316237E+02
 0.20781742306E+02 0.19125698274E+02 0.17356967442E+02 0.15861746758E+02 0.15003962143E+02
 0.15003961964E+02 0.15861745962E+02 0.17356965371E+02 0.19125694201E+02 0.20781735826E+02
 0.22034307558E+02 0.22760406755E+02 0.23012512877E+02 0.22963403167E+02 0.22758189003E+02
 0.22467563484E+02 0.22120343355E+02 0.21703190699E+02 0.21177270387E+02 0.20494367194E+02
 0.19608086604E+02 0.18558385212E+02 0.17487066414E+02 0.16598985343E+02 0.16093677621E+02