    8    8   10    1
  0.5796174E+02  0.5174000E-09  0.5174160E-09  0.2000000E-08  0.5000000E-15
  1.000000000000000E-004
  CAR 
 BC3 DOS                                 
     30     96     24
 
 -0.3330000E+00  0.6670000E+00  0.0000000E+00  0.1041667E-01
    1      -19.869141   1.000000
    2      -17.575627   1.000000
    3      -16.717042   1.000000
    4      -14.433774   1.000000
    5      -12.803275   1.000000
    6      -11.269844   1.000000
    7       -9.779828   1.000000
    8       -9.714218   1.000000
    9       -8.433991   1.000000
   10       -8.234485   1.000000
   11       -6.642237   1.000000
   12       -6.316347   1.000000
   13       -6.091104   1.000000
   14       -5.059631   1.000000
   15       -4.992665   1.000000
   16       -3.388319   0.000684
   17        0.121494   0.000000
   18        0.798933   0.000000
   19        1.242414   0.000000
   20        2.003911   0.000000
   21        2.324613   0.000000
   22        2.691656   0.000000
   23        3.353658   0.000000
   24        3.669751   0.000000
 
 -0.3222581E+00  0.6454839E+00  0.0000000E+00  0.1041667E-01
    1      -19.857140   1.000000
    2      -17.596424   1.000000
    3      -16.738173   1.000000
    4      -14.419176   1.000000
    5      -12.794998   1.000000
    6      -11.204850   1.000000
    7       -9.823789   1.000000
    8       -9.659412   1.000000
    9       -8.411081   1.000000
   10       -8.255951   1.000000
   11       -6.653153   1.000000
   12       -6.346402   1.000000
   13       -6.143181   1.000000
   14       -5.093186   1.000000
   15       -5.027496   1.000000
   16       -3.368534   0.000417
   17        0.056242   0.000000
   18        0.907609   0.000000
   19        1.274726   0.000000
   20        2.040438   0.000000
   21        2.357475   0.000000
   22        2.751100   0.000000
   23        3.387545   0.000000
   24        3.624276   0.000000
 
 -0.3115161E+00  0.6239677E+00  0.0000000E+00  0.1041667E-01
    1      -19.840750   1.000000
    2      -17.614133   1.000000
    3      -16.787922   1.000000
    4      -14.363518   1.000000
    5      -12.821413   1.000000
    6      -11.099247   1.000000
    7       -9.896442   1.000000
    8       -9.589409   1.000000
    9       -8.379810   1.000000
   10       -8.247785   1.000000
   11       -6.700631   1.000000
   12       -6.370752   1.000000
   13       -6.194073   1.000000
   14       -5.180012   1.000000
   15       -5.091285   1.000000
   16       -3.295756   0.000058
   17       -0.098243   0.000000
   18        1.124564   0.000000
   19        1.319017   0.000000
   20        2.092297   0.000000
   21        2.402453   0.000000
   22        2.807723   0.000000
   23        3.432346   0.000000
   24        3.590573   0.000000
 
 -0.3007742E+00  0.6024516E+00  0.0000000E+00  0.1041667E-01
    1      -19.820332   1.000000
    2      -17.628739   1.000000
    3      -16.860491   1.000000
    4      -14.273017   1.000000
    5      -12.872817   1.000000
    6      -10.964751   1.000000
    7       -9.989074   1.000000
    8       -9.506439   1.000000
    9       -8.340440   1.000000
   10       -8.215486   1.000000
   11       -6.781074   1.000000
   12       -6.389677   1.000000
   13       -6.244258   1.000000
   14       -5.305615   1.000000
   15       -5.181892   1.000000
   16       -3.183950   0.000002
   17       -0.276474   0.000000
   18        1.375259   0.000000
   19        1.381206   0.000000
   20        2.161842   0.000000
   21        2.459543   0.000000
   22        2.860656   0.000000
   23        3.487873   0.000000
   24        3.568709   0.000000
 
 -0.2900323E+00  0.5809355E+00  0.0000000E+00  0.1041667E-01
    1      -19.796424   1.000000
    2      -17.640787   1.000000
    3      -16.947950   1.000000
    4      -14.156660   1.000000
    5      -12.938055   1.000000
    6      -10.817748   1.000000
    7      -10.088801   1.000000
    8       -9.411071   1.000000
    9       -8.293425   1.000000
   10       -8.168036   1.000000
   11       -6.886898   1.000000
   12       -6.404287   1.000000
   13       -6.296295   1.000000
   14       -5.453732   1.000000
   15       -5.295356   1.000000
   16       -3.049362   0.000000
   17       -0.454258   0.000000
   18        1.443406   0.000000
   19        1.647577   0.000000
   20        2.254809   0.000000
   21        2.528736   0.000000
   22        2.908672   0.000000
   23        3.554123   0.000000
   24        3.558609   0.000000
 
 -0.2792903E+00  0.5594194E+00  0.0000000E+00  0.1041667E-01
    1      -19.769739   1.000000
    2      -17.651518   1.000000
    3      -17.041723   1.000000
    4      -14.025346   1.000000
    5      -13.006128   1.000000
    6      -10.685467   1.000000
    7      -10.170605   1.000000
    8       -9.303580   1.000000
    9       -8.239373   1.000000
   10       -8.117066   1.000000
   11       -7.007645   1.000000
   12       -6.416869   1.000000
   13       -6.353209   1.000000
   14       -5.609852   1.000000
   15       -5.425640   1.000000
   16       -2.906401   0.000000
   17       -0.620756   0.000000
   18        1.523402   0.000000
   19        1.900856   0.000000
   20        2.384279   0.000000
   21        2.610023   0.000000
   22        2.950488   0.000000
   23        3.560181   0.000000
   24        3.631324   0.000000
 
 -0.2685484E+00  0.5379032E+00  0.0000000E+00  0.1041667E-01
    1      -19.741221   1.000000
    2      -17.663187   1.000000
    3      -17.133102   1.000000
    4      -13.893001   1.000000
    5      -13.064741   1.000000
    6      -10.624185   1.000000
    7      -10.179352   1.000000
    8       -9.184569   1.000000
    9       -8.179202   1.000000
   10       -8.077618   1.000000
   11       -7.129356   1.000000
   12       -6.432234   1.000000
   13       -6.417927   1.000000
   14       -5.760502   1.000000
   15       -5.564418   1.000000
   16       -2.767802   0.000000
   17       -0.768363   0.000000
   18        1.615193   0.000000
   19        2.115114   0.000000
   20        2.570344   0.000000
   21        2.703394   0.000000
   22        2.984187   0.000000
   23        3.573324   0.000000
   24        3.719768   0.000000
 
 -0.2578065E+00  0.5163871E+00  0.0000000E+00  0.1041667E-01
    1      -19.712096   1.000000
    2      -17.679251   1.000000
    3      -17.213179   1.000000
    4      -13.779681   1.000000
    5      -13.096799   1.000000
    6      -10.666461   1.000000
    7      -10.082903   1.000000
    8       -9.056054   1.000000
    9       -8.114384   1.000000
   10       -8.068600   1.000000
   11       -7.233976   1.000000
   12       -6.493061   1.000000
   13       -6.459147   1.000000
   14       -5.890442   1.000000
   15       -5.700684   1.000000
   16       -2.645733   0.000000
   17       -0.889533   0.000000
   18        1.718726   0.000000
   19        2.281830   0.000000
   20        2.808841   0.000000
   21        2.815911   0.000000
   22        3.008516   0.000000
   23        3.597790   0.000000
   24        3.819477   0.000000
 
 -0.2470645E+00  0.4948710E+00  0.0000000E+00  0.1041667E-01
    1      -19.683871   1.000000
    2      -17.703554   1.000000
    3      -17.273464   1.000000
    4      -13.711007   1.000000
    5      -13.080957   1.000000
    6      -10.756597   1.000000
    7       -9.936464   1.000000
    8       -8.924538   1.000000
    9       -8.104019   1.000000
   10       -8.047052   1.000000
   11       -7.306596   1.000000
   12       -6.579117   1.000000
   13       -6.509326   1.000000
   14       -5.982458   1.000000
   15       -5.821265   1.000000
   16       -2.552117   0.000000
   17       -0.975686   0.000000
   18        1.833958   0.000000
   19        2.417891   0.000000
   20        2.926357   0.000000
   21        3.016977   0.000000
   22        3.103968   0.000000
   23        3.553441   0.000000
   24        3.636148   0.000000
 
 -0.2363226E+00  0.4733548E+00  0.0000000E+00  0.1041667E-01
    1      -19.658372   1.000000
    2      -17.737436   1.000000
    3      -17.308549   1.000000
    4      -13.699185   1.000000
    5      -13.010964   1.000000
    6      -10.851290   1.000000
    7       -9.781928   1.000000
    8       -8.810326   1.000000
    9       -8.167706   1.000000
   10       -7.980642   1.000000
   11       -7.354348   1.000000
   12       -6.669500   1.000000
   13       -6.587058   1.000000
   14       -6.026732   1.000000
   15       -5.913704   1.000000
   16       -2.497189   0.000000
   17       -1.019728   0.000000
   18        1.960846   0.000000
   19        2.534268   0.000000
   20        3.026770   0.000000
   21        3.055927   0.000000
   22        3.291671   0.000000
   23        3.397268   0.000000
   24        3.682670   0.000000
 
 -0.2255806E+00  0.4518387E+00  0.0000000E+00  0.1041667E-01
    1      -19.637682   1.000000
    2      -17.776837   1.000000
    3      -17.318848   1.000000
    4      -13.728848   1.000000
    5      -12.910318   1.000000
    6      -10.930259   1.000000
    7       -9.638079   1.000000
    8       -8.765301   1.000000
    9       -8.191951   1.000000
   10       -7.920607   1.000000
   11       -7.409958   1.000000
   12       -6.745638   1.000000
   13       -6.679219   1.000000
   14       -6.029614   1.000000
   15       -5.969910   1.000000
   16       -2.485244   0.000000
   17       -1.020009   0.000000
   18        2.099349   0.000000
   19        2.621789   0.000000
   20        3.039670   0.000000
   21        3.042530   0.000000
   22        3.197614   0.000000
   23        3.670246   0.000000
   24        3.741679   0.000000
 
 -0.2148387E+00  0.4303226E+00  0.0000000E+00  0.1041667E-01
    1      -19.623982   1.000000
    2      -17.813858   1.000000
    3      -17.309031   1.000000
    4      -13.778713   1.000000
    5      -12.810612   1.000000
    6      -10.979203   1.000000
    7       -9.522775   1.000000
    8       -8.827055   1.000000
    9       -8.117384   1.000000
   10       -7.875223   1.000000
   11       -7.500977   1.000000
   12       -6.787617   1.000000
   13       -6.763900   1.000000
   14       -6.003960   1.000000
   15       -5.986991   1.000000
   16       -2.511872   0.000000
   17       -0.982783   0.000000
   18        2.249437   0.000000
   19        2.652668   0.000000
   20        2.798811   0.000000
   21        3.094088   0.000000
   22        3.351289   0.000000
   23        3.570941   0.000000
   24        3.812080   0.000000
 
 -0.2040968E+00  0.4088065E+00  0.0000000E+00  0.1041667E-01
    1      -19.619293   1.000000
    2      -17.840716   1.000000
    3      -17.284227   1.000000
    4      -13.835768   1.000000
    5      -12.735786   1.000000
    6      -10.986168   1.000000
    7       -9.473418   1.000000
    8       -8.921752   1.000000
    9       -8.002924   1.000000
   10       -7.855256   1.000000
   11       -7.602650   1.000000
   12       -6.820642   1.000000
   13       -6.795641   1.000000
   14       -5.965691   1.000000
   15       -5.959226   1.000000
   16       -2.566757   0.000000
   17       -0.920135   0.000000
   18        2.411002   0.000000
   19        2.569294   0.000000
   20        2.613251   0.000000
   21        3.183731   0.000000
   22        3.381658   0.000000
   23        3.517028   0.000000
   24        3.679059   0.000000
 
 -0.1933548E+00  0.3872903E+00  0.0000000E+00  0.1041667E-01
    1      -19.625088   1.000000
    2      -17.851802   1.000000
    3      -17.248258   1.000000
    4      -13.893391   1.000000
    5      -12.699865   1.000000
    6      -10.944283   1.000000
    7       -9.544948   1.000000
    8       -8.952130   1.000000
    9       -8.001801   1.000000
   10       -7.869839   1.000000
   11       -7.584669   1.000000
   12       -6.834929   1.000000
   13       -6.783484   1.000000
   14       -5.909303   1.000000
   15       -5.900898   1.000000
   16       -2.638595   0.000000
   17       -0.844543   0.000000
   18        2.350853   0.000000
   19        2.520023   0.000000
   20        2.584406   0.000000
   21        3.133247   0.000000
   22        3.377002   0.000000
   23        3.455481   0.000000
   24        3.694810   0.000000
 
 -0.1826129E+00  0.3657742E+00  0.0000000E+00  0.1041667E-01
    1      -19.641956   1.000000
    2      -17.843926   1.000000
    3      -17.203686   1.000000
    4      -13.948108   1.000000
    5      -12.705938   1.000000
    6      -10.856234   1.000000
    7       -9.719370   1.000000
    8       -8.927873   1.000000
    9       -8.128863   1.000000
   10       -7.920024   1.000000
   11       -7.424415   1.000000
   12       -6.802960   1.000000
   13       -6.758078   1.000000
   14       -5.832164   1.000000
   15       -5.823567   1.000000
   16       -2.718075   0.000000
   17       -0.765802   0.000000
   18        2.144179   0.000000
   19        2.391051   0.000000
   20        2.768991   0.000000
   21        2.956593   0.000000
   22        3.243928   0.000000
   23        3.525521   0.000000
   24        3.884618   0.000000
 
 -0.1718710E+00  0.3442581E+00  0.0000000E+00  0.1041667E-01
    1      -19.669447   1.000000
    2      -17.815992   1.000000
    3      -17.152281   1.000000
    4      -13.997944   1.000000
    5      -12.748071   1.000000
    6      -10.736447   1.000000
    7       -9.933557   1.000000
    8       -8.931660   1.000000
    9       -8.242526   1.000000
   10       -7.997904   1.000000
   11       -7.237523   1.000000
   12       -6.731289   1.000000
   13       -6.711773   1.000000
   14       -5.755257   1.000000
   15       -5.715536   1.000000
   16       -2.798384   0.000000
   17       -0.690710   0.000000
   18        1.949016   0.000000
   19        2.237910   0.000000
   20        2.777469   0.000000
   21        2.965014   0.000000
   22        3.044449   0.000000
   23        3.633971   0.000000
   24        3.798606   0.000000
 
 -0.1611290E+00  0.3227419E+00  0.0000000E+00  0.1041667E-01
    1      -19.706179   1.000000
    2      -17.768502   1.000000
    3      -17.095372   1.000000
    4      -14.041676   1.000000
    5      -12.816530   1.000000
    6      -10.621331   1.000000
    7      -10.134523   1.000000
    8       -9.027680   1.000000
    9       -8.267355   1.000000
   10       -8.092661   1.000000
   11       -7.080932   1.000000
   12       -6.630172   1.000000
   13       -6.619699   1.000000
   14       -5.671906   1.000000
   15       -5.591946   1.000000
   16       -2.874553   0.000000
   17       -0.623331   0.000000
   18        1.765439   0.000000
   19        2.068479   0.000000
   20        2.601230   0.000000
   21        2.856978   0.000000
   22        3.172424   0.000000
   23        3.426575   0.000000
   24        3.838502   0.000000
 
 -0.1503871E+00  0.3012258E+00  0.0000000E+00  0.1041667E-01
    1      -19.750163   1.000000
    2      -17.703014   1.000000
    3      -17.034078   1.000000
    4      -14.078497   1.000000
    5      -12.902123   1.000000
    6      -10.630938   1.000000
    7      -10.202129   1.000000
    8       -9.207687   1.000000
    9       -8.208342   1.000000
   10       -8.195459   1.000000
   11       -6.984489   1.000000
   12       -6.508429   1.000000
   13       -6.460373   1.000000
   14       -5.583854   1.000000
   15       -5.458622   1.000000
   16       -2.942847   0.000000
   17       -0.565997   0.000000
   18        1.593495   0.000000
   19        1.887826   0.000000
   20        2.427403   0.000000
   21        2.681609   0.000000
   22        3.145810   0.000000
   23        3.391025   0.000000
   24        3.704803   0.000000
 
 -0.1396452E+00  0.2797097E+00  0.0000000E+00  0.1041667E-01
    1      -19.799172   1.000000
    2      -17.621638   1.000000
    3      -16.969439   1.000000
    4      -14.107861   1.000000
    5      -12.997793   1.000000
    6      -10.817433   1.000000
    7      -10.088086   1.000000
    8       -9.428739   1.000000
    9       -8.300244   1.000000
   10       -8.105481   1.000000
   11       -6.934106   1.000000
   12       -6.372385   1.000000
   13       -6.251270   1.000000
   14       -5.492920   1.000000
   15       -5.320215   1.000000
   16       -3.000120   0.000000
   17       -0.519660   0.000000
   18        1.433220   0.000000
   19        1.699398   0.000000
   20        2.255106   0.000000
   21        2.518309   0.000000
   22        2.853702   0.000000
   23        3.541990   0.000000
   24        3.620685   0.000000
 
 -0.1289032E+00  0.2581935E+00  0.0000000E+00  0.1041667E-01
    1      -19.851051   1.000000
    2      -17.526699   1.000000
    3      -16.902484   1.000000
    4      -14.129413   1.000000
    5      -13.098573   1.000000
    6      -11.054502   1.000000
    7       -9.923841   1.000000
    8       -9.664035   1.000000
    9       -8.403211   1.000000
   10       -7.981768   1.000000
   11       -6.904121   1.000000
   12       -6.226497   1.000000
   13       -6.020381   1.000000
   14       -5.401153   1.000000
   15       -5.180470   1.000000
   16       -3.043597   0.000000
   17       -0.484230   0.000000
   18        1.284635   0.000000
   19        1.505363   0.000000
   20        2.081649   0.000000
   21        2.367081   0.000000
   22        2.562304   0.000000
   23        3.388406   0.000000
   24        3.756047   0.000000
 
 -0.1181613E+00  0.2366774E+00  0.0000000E+00  0.1041667E-01
    1      -19.903865   1.000000
    2      -17.420546   1.000000
    3      -16.834278   1.000000
    4      -14.142961   1.000000
    5      -13.201057   1.000000
    6      -11.299696   1.000000
    7       -9.912966   1.000000
    8       -9.743686   1.000000
    9       -8.501892   1.000000
   10       -7.846802   1.000000
   11       -6.881160   1.000000
   12       -6.074244   1.000000
   13       -5.783286   1.000000
   14       -5.310799   1.000000
   15       -5.042357   1.000000
   16       -3.070605   0.000000
   17       -0.459299   0.000000
   18        1.147773   0.000000
   19        1.307608   0.000000
   20        1.898399   0.000000
   21        2.227929   0.000000
   22        2.286360   0.000000
   23        3.247023   0.000000
   24        3.617845   0.000000
 
 -0.1074194E+00  0.2151613E+00  0.0000000E+00  0.1041667E-01
    1      -19.955986   1.000000
    2      -17.305497   1.000000
    3      -16.765951   1.000000
    4      -14.148498   1.000000
    5      -13.302927   1.000000
    6      -11.542196   1.000000
    7      -10.147972   1.000000
    8       -9.581840   1.000000
    9       -8.594684   1.000000
   10       -7.705119   1.000000
   11       -6.859663   1.000000
   12       -5.918472   1.000000
   13       -5.548048   1.000000
   14       -5.224377   1.000000
   15       -4.908432   1.000000
   16       -3.078647   0.000000
   17       -0.443864   0.000000
   18        1.022649   0.000000
   19        1.108228   0.000000
   20        1.687201   0.000000
   21        2.048957   0.000000
   22        2.100856   0.000000
   23        3.118172   0.000000
   24        3.491514   0.000000
 
 -0.9667742E-01  0.1936452E+00  0.0000000E+00  0.1041667E-01
    1      -20.006069   1.000000
    2      -17.183882   1.000000
    3      -16.698693   1.000000
    4      -14.146236   1.000000
    5      -13.402604   1.000000
    6      -11.776917   1.000000
    7      -10.379174   1.000000
    8       -9.430175   1.000000
    9       -8.680482   1.000000
   10       -7.559645   1.000000
   11       -6.837418   1.000000
   12       -5.761944   1.000000
   13       -5.319726   1.000000
   14       -5.144347   1.000000
   15       -4.780893   1.000000
   16       -3.065527   0.000000
   17       -0.437096   0.000000
   18        0.909290   0.000000
   19        0.909810   0.000000
   20        1.437006   0.000000
   21        1.865705   0.000000
   22        1.985863   0.000000
   23        3.001814   0.000000
   24        3.377084   0.000000
 
 -0.8593548E-01  0.1721290E+00  0.0000000E+00  0.1041667E-01
    1      -20.053047   1.000000
    2      -17.058154   1.000000
    3      -16.633749   1.000000
    4      -14.136663   1.000000
    5      -13.499003   1.000000
    6      -12.000091   1.000000
    7      -10.600783   1.000000
    8       -9.294544   1.000000
    9       -8.758538   1.000000
   10       -7.413129   1.000000
   11       -6.813865   1.000000
   12       -5.607419   1.000000
   13       -5.102393   1.000000
   14       -5.072924   1.000000
   15       -4.661721   1.000000
   16       -3.029735   0.000000
   17       -0.438003   0.000000
   18        0.714955   0.000000
   19        0.807718   0.000000
   20        1.162867   0.000000
   21        1.725868   0.000000
   22        1.882954   0.000000
   23        2.897867   0.000000
   24        3.274567   0.000000
 
 -0.7519355E-01  0.1506129E+00  0.0000000E+00  0.1041667E-01
    1      -20.096061   1.000000
    2      -16.931007   1.000000
    3      -16.572411   1.000000
    4      -14.120640   1.000000
    5      -13.591326   1.000000
    6      -12.208160   1.000000
    7      -10.809571   1.000000
    8       -9.176885   1.000000
    9       -8.828296   1.000000
   10       -7.268798   1.000000
   11       -6.789257   1.000000
   12       -5.457826   1.000000
   13       -5.011735   1.000000
   14       -4.899552   1.000000
   15       -4.552567   1.000000
   16       -2.970921   0.000000
   17       -0.445803   0.000000
   18        0.525613   0.000000
   19        0.717960   0.000000
   20        0.885838   0.000000
   21        1.614109   0.000000
   22        1.792132   0.000000
   23        2.806262   0.000000
   24        3.183978   0.000000
 
 -0.6445161E-01  0.1290968E+00  0.0000000E+00  0.1041667E-01
    1      -20.134439   1.000000
    2      -16.805558   1.000000
    3      -16.515966   1.000000
    4      -14.099467   1.000000
    5      -13.678867   1.000000
    6      -12.397444   1.000000
    7      -11.002426   1.000000
    8       -9.077680   1.000000
    9       -8.889350   1.000000
   10       -7.130476   1.000000
   11       -6.764391   1.000000
   12       -5.316419   1.000000
   13       -4.961517   1.000000
   14       -4.714596   1.000000
   15       -4.454975   0.999993
   16       -2.890330   0.000000
   17       -0.459983   0.000000
   18        0.340793   0.000000
   19        0.623075   0.000000
   20        0.640048   0.000000
   21        1.522459   0.000000
   22        1.713401   0.000000
   23        2.726949   0.000000
   24        3.105339   0.000000
 
 -0.5370968E-01  0.1075806E+00  0.0000000E+00  0.1041667E-01
    1      -20.167668   1.000000
    2      -16.685532   1.000000
    3      -16.465674   1.000000
    4      -14.074968   1.000000
    5      -13.760712   1.000000
    6      -12.564138   1.000000
    7      -11.176005   1.000000
    8       -8.996461   1.000000
    9       -8.941425   1.000000
   10       -7.002542   1.000000
   11       -6.740386   1.000000
   12       -5.186804   1.000000
   13       -4.922083   1.000000
   14       -4.550936   1.000000
   15       -4.370256   0.999909
   16       -2.791395   0.000000
   17       -0.480133   0.000000
   18        0.152577   0.000000
   19        0.395460   0.000000
   20        0.574017   0.000000
   21        1.447380   0.000000
   22        1.646766   0.000000
   23        2.659887   0.000000
   24        3.038677   0.000000
 
 -0.4296774E-01  0.8606452E-01  0.0000000E+00  0.1041667E-01
    1      -20.195338   1.000000
    2      -16.575411   1.000000
    3      -16.422708   1.000000
    4      -14.049467   1.000000
    5      -13.835329   1.000000
    6      -12.704554   1.000000
    7      -11.326611   1.000000
    8       -8.984283   1.000000
    9       -8.932295   1.000000
   10       -6.889571   1.000000
   11       -6.718484   1.000000
   12       -5.072800   1.000000
   13       -4.892504   1.000000
   14       -4.411797   0.999973
   15       -4.299459   0.999405
   16       -2.680130   0.000000
   17       -0.505188   0.000000
   18       -0.047365   0.000000
   19        0.223526   0.000000
   20        0.519907   0.000000
   21        1.387177   0.000000
   22        1.592233   0.000000
   23        2.605051   0.000000
   24        2.984032   0.000000
 
 -0.3222581E-01  0.6454839E-01  0.0000000E+00  0.1041667E-01
    1      -20.217145   1.000000
    2      -16.480478   1.000000
    3      -16.388107   1.000000
    4      -14.025655   1.000000
    5      -13.900139   1.000000
    6      -12.815625   1.000000
    7      -11.450193   1.000000
    8       -9.017764   1.000000
    9       -8.883970   1.000000
   10       -6.796068   1.000000
   11       -6.699887   1.000000
   12       -4.978457   1.000000
   13       -4.871489   1.000000
   14       -4.300374   0.999418
   15       -4.243110   0.997764
   16       -2.565845   0.000000
   17       -0.532921   0.000000
   18       -0.245140   0.000000
   19        0.106222   0.000000
   20        0.477763   0.000000
   21        1.340959   0.000000
   22        1.549808   0.000000
   23        2.562420   0.000000
   24        2.941451   0.000000
 
 -0.2148387E-01  0.4303226E-01  0.0000000E+00  0.1041667E-01
    1      -20.232871   1.000000
    2      -16.406564   1.000000
    3      -16.362737   1.000000
    4      -14.006308   1.000000
    5      -13.951336   1.000000
    6      -12.895404   1.000000
    7      -11.542563   1.000000
    8       -9.041751   1.000000
    9       -8.850377   1.000000
   10       -6.726092   1.000000
   11       -6.685694   1.000000
   12       -4.907652   1.000000
   13       -4.857659   1.000000
   14       -4.221181   0.996403
   15       -4.200131   0.994440
   16       -2.462236   0.000000
   17       -0.559054   0.000000
   18       -0.414261   0.000000
   19        0.030932   0.000000
   20        0.447622   0.000000
   21        1.308222   0.000000
   22        1.519499   0.000000
   23        2.531980   0.000000
   24        2.910982   0.000000
 
 -0.1074194E-01  0.2151613E-01  0.0000000E+00  0.1041667E-01
    1      -20.242363   1.000000
    2      -16.359337   1.000000
    3      -16.347238   1.000000
    4      -13.994299   1.000000
    5      -13.983947   1.000000
    6      -12.943180   1.000000
    7      -11.599863   1.000000
    8       -9.056165   1.000000
    9       -8.830621   1.000000
   10       -6.683464   1.000000
   11       -6.676085   1.000000
   12       -4.863659   1.000000
   13       -4.849835   1.000000
   14       -4.183732   0.992303
   15       -4.163084   0.988606
   16       -2.387377   0.000000
   17       -0.578222   0.000000
   18       -0.529553   0.000000
   19       -0.011024   0.000000
   20        0.429521   0.000000
   21        1.288679   0.000000
   22        1.501310   0.000000
   23        2.513721   0.000000
   24        2.892676   0.000000
 
  0.0000000E+00  0.0000000E+00  0.0000000E+00  0.1041667E-01
    1      -20.245532   1.000000
    2      -16.343177   1.000000
    3      -16.341906   1.000000
    4      -13.997325   1.000000
    5      -13.988100   1.000000
    6      -12.959048   1.000000
    7      -11.619303   1.000000
    8       -9.060961   1.000000
    9       -8.824077   1.000000
   10       -6.674817   1.000000
   11       -6.666971   1.000000
   12       -4.848892   1.000000
   13       -4.847160   1.000000
   14       -4.174355   0.990780
   15       -4.147493   0.984872
   16       -2.359656   0.000000
   17       -0.586421   0.000000
   18       -0.569828   0.000000
   19       -0.024448   0.000000
   20        0.423484   0.000000
   21        1.282181   0.000000
   22        1.495247   0.000000
   23        2.507636   0.000000
   24        2.886570   0.000000
 
  0.0000000E+00  0.0000000E+00  0.0000000E+00  0.1041667E-01
    1      -20.245532   1.000000
    2      -16.343177   1.000000
    3      -16.341906   1.000000
    4      -13.997325   1.000000
    5      -13.988100   1.000000
    6      -12.959048   1.000000
    7      -11.619303   1.000000
    8       -9.060961   1.000000
    9       -8.824077   1.000000
   10       -6.674817   1.000000
   11       -6.666971   1.000000
   12       -4.848892   1.000000
   13       -4.847160   1.000000
   14       -4.174355   0.990780
   15       -4.147493   0.984872
   16       -2.359656   0.000000
   17       -0.586421   0.000000
   18       -0.569828   0.000000
   19       -0.024448   0.000000
   20        0.423484   0.000000
   21        1.282181   0.000000
   22        1.495247   0.000000
   23        2.507636   0.000000
   24        2.886570   0.000000
 
  0.1612903E-01  0.0000000E+00  0.0000000E+00  0.1041667E-01
    1      -20.244511   1.000000
    2      -16.347597   1.000000
    3      -16.344431   1.000000
    4      -13.997856   1.000000
    5      -13.985202   1.000000
    6      -12.953981   1.000000
    7      -11.613043   1.000000
    8       -9.059413   1.000000
    9       -8.826204   1.000000
   10       -6.678897   1.000000
   11       -6.668616   1.000000
   12       -4.852570   1.000000
   13       -4.849082   1.000000
   14       -4.179105   0.991582
   15       -4.150767   0.985733
   16       -2.368859   0.000000
   17       -0.577471   0.000000
   18       -0.562782   0.000000
   19       -0.020230   0.000000
   20        0.425425   0.000000
   21        1.284267   0.000000
   22        1.497196   0.000000
   23        2.509592   0.000000
   24        2.888533   0.000000
 
  0.3225806E-01  0.0000000E+00  0.0000000E+00  0.1041667E-01
    1      -20.241459   1.000000
    2      -16.363199   1.000000
    3      -16.349473   1.000000
    4      -14.001341   1.000000
    5      -13.974724   1.000000
    6      -12.938758   1.000000
    7      -11.594373   1.000000
    8       -9.054798   1.000000
    9       -8.832550   1.000000
   10       -6.692412   1.000000
   11       -6.672161   1.000000
   12       -4.866851   1.000000
   13       -4.851591   1.000000
   14       -4.193881   0.993697
   15       -4.160076   0.987955
   16       -2.395484   0.000000
   17       -0.566262   0.000000
   18       -0.527363   0.000000
   19       -0.007442   0.000000
   20        0.431246   0.000000