<?xml version="1.0" encoding="ISO-8859-1"?>
<modeling>
 <generator>
  <i name="program" type="string">vasp </i>
  <i name="version" type="string">5.4.4.18Apr17-6-g9f103f2a35  </i>
  <i name="subversion" type="string">(build Mar 30 2023 15:39:25) complex            parallel </i>
  <i name="platform" type="string">LinuxIFC </i>
  <i name="date" type="string">2023 05 25 </i>
  <i name="time" type="string">15:20:37 </i>
 </generator>
 <incar>
  <i type="string" name="SYSTEM"> BC3 DOS</i>
  <i type="int" name="ISTART">     0</i>
  <i type="string" name="PREC">accurate</i>
  <i type="int" name="ICHARG">     2</i>
  <i type="int" name="IBRION">     2</i>
  <i name="EDIFF">      0.00000100</i>
  <i name="EDIFFG">     -0.00000100</i>
  <i type="int" name="NSW">    10</i>
  <i name="ENCUT">    450.00000000</i>
  <i type="int" name="ISMEAR">     0</i>
  <i name="SIGMA">      0.20000000</i>
  <v type="int" name="KPOINT_BSE">    -1     0     0     0</v>
 </incar>
 <structure name="primitive_cell" >
  <crystal>
   <varray name="basis" >
    <v>       5.17400000       0.00000000       0.00000000 </v>
    <v>       2.58700000       4.48100000       0.00000000 </v>
    <v>       0.00000000       0.00000000      20.00000000 </v>
   </varray>
   <i name="volume">    463.69388000 </i>
   <varray name="rec_basis" >
    <v>       0.19327406      -0.11158224       0.00000000 </v>
    <v>       0.00000000       0.22316447       0.00000000 </v>
    <v>       0.00000000       0.00000000       0.05000000 </v>
   </varray>
  </crystal>
  <varray name="positions" >
   <v>       0.17457326       0.17462620       0.00000000 </v>
   <v>       0.00000000       0.00000000       0.00000000 </v>
   <v>      -0.47622729       0.00000000       0.00000000 </v>
   <v>      -0.00005294      -0.47612140       0.00000000 </v>
   <v>      -0.31744862       0.15866994       0.00000000 </v>
   <v>      -0.31750156      -0.31745146       0.00000000 </v>
   <v>       0.15872573      -0.31745146       0.00000000 </v>
   <v>      -0.49207481      -0.49207766       0.00000000 </v>
  </varray>
 </structure>
 <varray name="primitive_index" >
  <v type="int" >        1 </v>
  <v type="int" >        3 </v>
  <v type="int" >        4 </v>
  <v type="int" >        6 </v>
  <v type="int" >        5 </v>
  <v type="int" >        8 </v>
  <v type="int" >        7 </v>
  <v type="int" >        2 </v>
 </varray>
 <kpoints>
  <generation param="listgenerated">
   <i name="divisions" type="int">      32 </i>
   <v>      -0.33300000       0.66700000       0.00000000 </v>
   <v>       0.00000000       0.00000000       0.00000000 </v>
   <v>       0.50000000       0.00000000       0.00000000 </v>
   <v>      -0.33300000       0.66700000       0.00000000 </v>
  </generation>
  <varray name="kpointlist" >
   <v>      -0.33300000       0.66700000       0.00000000 </v>
   <v>      -0.32225806       0.64548387       0.00000000 </v>
   <v>      -0.31151613       0.62396774       0.00000000 </v>
   <v>      -0.30077419       0.60245161       0.00000000 </v>
   <v>      -0.29003226       0.58093548       0.00000000 </v>
   <v>      -0.27929032       0.55941935       0.00000000 </v>
   <v>      -0.26854839       0.53790323       0.00000000 </v>
   <v>      -0.25780645       0.51638710       0.00000000 </v>
   <v>      -0.24706452       0.49487097       0.00000000 </v>
   <v>      -0.23632258       0.47335484       0.00000000 </v>
   <v>      -0.22558065       0.45183871       0.00000000 </v>
   <v>      -0.21483871       0.43032258       0.00000000 </v>
   <v>      -0.20409677       0.40880645       0.00000000 </v>
   <v>      -0.19335484       0.38729032       0.00000000 </v>
   <v>      -0.18261290       0.36577419       0.00000000 </v>
   <v>      -0.17187097       0.34425806       0.00000000 </v>
   <v>      -0.16112903       0.32274194       0.00000000 </v>
   <v>      -0.15038710       0.30122581       0.00000000 </v>
   <v>      -0.13964516       0.27970968       0.00000000 </v>
   <v>      -0.12890323       0.25819355       0.00000000 </v>
   <v>      -0.11816129       0.23667742       0.00000000 </v>
   <v>      -0.10741935       0.21516129       0.00000000 </v>
   <v>      -0.09667742       0.19364516       0.00000000 </v>
   <v>      -0.08593548       0.17212903       0.00000000 </v>
   <v>      -0.07519355       0.15061290       0.00000000 </v>
   <v>      -0.06445161       0.12909677       0.00000000 </v>
   <v>      -0.05370968       0.10758065       0.00000000 </v>
   <v>      -0.04296774       0.08606452       0.00000000 </v>
   <v>      -0.03222581       0.06454839       0.00000000 </v>
   <v>      -0.02148387       0.04303226       0.00000000 </v>
   <v>      -0.01074194       0.02151613       0.00000000 </v>
   <v>       0.00000000       0.00000000       0.00000000 </v>
   <v>       0.00000000       0.00000000       0.00000000 </v>
   <v>       0.01612903       0.00000000       0.00000000 </v>
   <v>       0.03225806       0.00000000       0.00000000 </v>
   <v>       0.04838710       0.00000000       0.00000000 </v>
   <v>       0.06451613       0.00000000       0.00000000 </v>
   <v>       0.08064516       0.00000000       0.00000000 </v>
   <v>       0.09677419       0.00000000       0.00000000 </v>
   <v>       0.11290323       0.00000000       0.00000000 </v>
   <v>       0.12903226       0.00000000       0.00000000 </v>
   <v>       0.14516129       0.00000000       0.00000000 </v>
   <v>       0.16129032       0.00000000       0.00000000 </v>
   <v>       0.17741935       0.00000000       0.00000000 </v>
   <v>       0.19354839       0.00000000       0.00000000 </v>
   <v>       0.20967742       0.00000000       0.00000000 </v>
   <v>       0.22580645       0.00000000       0.00000000 </v>
   <v>       0.24193548       0.00000000       0.00000000 </v>
   <v>       0.25806452       0.00000000       0.00000000 </v>
   <v>       0.27419355       0.00000000       0.00000000 </v>
   <v>       0.29032258       0.00000000       0.00000000 </v>
   <v>       0.30645161       0.00000000       0.00000000 </v>
   <v>       0.32258065       0.00000000       0.00000000 </v>
   <v>       0.33870968       0.00000000       0.00000000 </v>
   <v>       0.35483871       0.00000000       0.00000000 </v>
   <v>       0.37096774       0.00000000       0.00000000 </v>
   <v>       0.38709677       0.00000000       0.00000000 </v>
   <v>       0.40322581       0.00000000       0.00000000 </v>
   <v>       0.41935484       0.00000000       0.00000000 </v>
   <v>       0.43548387       0.00000000       0.00000000 </v>
   <v>       0.45161290       0.00000000       0.00000000 </v>
   <v>       0.46774194       0.00000000       0.00000000 </v>
   <v>       0.48387097       0.00000000       0.00000000 </v>
   <v>       0.50000000       0.00000000       0.00000000 </v>
   <v>       0.50000000       0.00000000       0.00000000 </v>
   <v>       0.47312903       0.02151613       0.00000000 </v>
   <v>       0.44625806       0.04303226       0.00000000 </v>
   <v>       0.41938710       0.06454839       0.00000000 </v>
   <v>       0.39251613       0.08606452       0.00000000 </v>
   <v>       0.36564516       0.10758065       0.00000000 </v>
   <v>       0.33877419       0.12909677       0.00000000 </v>
   <v>       0.31190323       0.15061290       0.00000000 </v>
   <v>       0.28503226       0.17212903       0.00000000 </v>
   <v>       0.25816129       0.19364516       0.00000000 </v>
   <v>       0.23129032       0.21516129       0.00000000 </v>
   <v>       0.20441935       0.23667742       0.00000000 </v>
   <v>       0.17754839       0.25819355       0.00000000 </v>
   <v>       0.15067742       0.27970968       0.00000000 </v>
   <v>       0.12380645       0.30122581       0.00000000 </v>
   <v>       0.09693548       0.32274194       0.00000000 </v>
   <v>       0.07006452       0.34425806       0.00000000 </v>
   <v>       0.04319355       0.36577419       0.00000000 </v>
   <v>       0.01632258       0.38729032       0.00000000 </v>
   <v>      -0.01054839       0.40880645       0.00000000 </v>
   <v>      -0.03741935       0.43032258       0.00000000 </v>
   <v>      -0.06429032       0.45183871       0.00000000 </v>
   <v>      -0.09116129       0.47335484       0.00000000 </v>
   <v>      -0.11803226       0.49487097       0.00000000 </v>
   <v>      -0.14490323       0.51638710       0.00000000 </v>
   <v>      -0.17177419       0.53790323       0.00000000 </v>
   <v>      -0.19864516       0.55941935       0.00000000 </v>
   <v>      -0.22551613       0.58093548       0.00000000 </v>
   <v>      -0.25238710       0.60245161       0.00000000 </v>
   <v>      -0.27925806       0.62396774       0.00000000 </v>
   <v>      -0.30612903       0.64548387       0.00000000 </v>
   <v>      -0.33300000       0.66700000       0.00000000 </v>
  </varray>
  <varray name="weights" >
   <v>       0.01041667 </v>
   <v>       0.01041667 </v>
   <v>       0.01041667 </v>
   <v>       0.01041667 </v>
   <v>       0.01041667 </v>
   <v>       0.01041667 </v>
   <v>       0.01041667 </v>
   <v>       0.01041667 </v>
   <v>       0.01041667 </v>
   <v>       0.01041667 </v>
   <v>       0.01041667 </v>
   <v>       0.01041667 </v>
   <v>       0.01041667 </v>
   <v>       0.01041667 </v>
   <v>       0.01041667 </v>
   <v>       0.01041667 </v>
   <v>       0.01041667 </v>
   <v>       0.01041667 </v>
   <v>       0.01041667 </v>
   <v>       0.01041667 </v>
   <v>       0.01041667 </v>
   <v>       0.01041667 </v>
   <v>       0.01041667 </v>
   <v>       0.01041667 </v>
   <v>       0.01041667 </v>
   <v>       0.01041667 </v>
   <v>       0.01041667 </v>
   <v>       0.01041667 </v>
   <v>       0.01041667 </v>
   <v>       0.01041667 </v>
   <v>       0.01041667 </v>
   <v>       0.01041667 </v>
   <v>       0.01041667 </v>
   <v>       0.01041667 </v>
   <v>       0.01041667 </v>
   <v>       0.01041667 </v>
   <v>       0.01041667 </v>
   <v>       0.01041667 </v>
   <v>       0.01041667 </v>
   <v>       0.01041667 </v>
   <v>       0.01041667 </v>
   <v>       0.01041667 </v>
   <v>       0.01041667 </v>
   <v>       0.01041667 </v>
   <v>       0.01041667 </v>
   <v>       0.01041667 </v>
   <v>       0.01041667 </v>
   <v>       0.01041667 </v>
   <v>       0.01041667 </v>
   <v>       0.01041667 </v>
   <v>       0.01041667 </v>
   <v>       0.01041667 </v>
   <v>       0.01041667 </v>
   <v>       0.01041667 </v>
   <v>       0.01041667 </v>
   <v>       0.01041667 </v>
   <v>       0.01041667 </v>
   <v>       0.01041667 </v>
   <v>       0.01041667 </v>
   <v>       0.01041667 </v>
   <v>       0.01041667 </v>
   <v>       0.01041667 </v>
   <v>       0.01041667 </v>
   <v>       0.01041667 </v>
   <v>       0.01041667 </v>
   <v>       0.01041667 </v>
   <v>       0.01041667 </v>
   <v>       0.01041667 </v>
   <v>       0.01041667 </v>
   <v>       0.01041667 </v>
   <v>       0.01041667 </v>
   <v>       0.01041667 </v>
   <v>       0.01041667 </v>
   <v>       0.01041667 </v>
   <v>       0.01041667 </v>
   <v>       0.01041667 </v>
   <v>       0.01041667 </v>
   <v>       0.01041667 </v>
   <v>       0.01041667 </v>
   <v>       0.01041667 </v>
   <v>       0.01041667 </v>
   <v>       0.01041667 </v>
   <v>       0.01041667 </v>
   <v>       0.01041667 </v>
   <v>       0.01041667 </v>
   <v>       0.01041667 </v>
   <v>       0.01041667 </v>
   <v>       0.01041667 </v>
   <v>       0.01041667 </v>
   <v>       0.01041667 </v>
   <v>       0.01041667 </v>
   <v>       0.01041667 </v>
   <v>       0.01041667 </v>
   <v>       0.01041667 </v>
   <v>       0.01041667 </v>
   <v>       0.01041667 </v>
  </varray>
 </kpoints>
 <parameters>
  <separator name="general" >
   <i type="string" name="SYSTEM">BC3 DOS</i>
   <i type="logical" name="LCOMPAT"> F  </i>
  </separator>
  <separator name="electronic" >
   <i type="string" name="PREC">accura</i>
   <i name="ENMAX">    450.00000000</i>
   <i name="ENAUG">    644.87300000</i>
   <i name="EDIFF">      0.00000100</i>
   <i type="int" name="IALGO">    38</i>
   <i type="int" name="IWAVPR">    11</i>
   <i type="int" name="NBANDS">    24</i>
   <i name="NELECT">     30.00000000</i>
   <i type="int" name="TURBO">     0</i>
   <i type="int" name="IRESTART">     0</i>
   <i type="int" name="NREBOOT">     0</i>
   <i type="int" name="NMIN">     0</i>
   <i name="EREF">      0.00000000</i>
   <separator name="electronic smearing" >
    <i type="int" name="ISMEAR">     0</i>
    <i name="SIGMA">      0.20000000</i>
    <i name="KSPACING">      0.50000000</i>
    <i type="logical" name="KGAMMA"> T  </i>
   </separator>
   <separator name="electronic projectors" >
    <i type="logical" name="LREAL"> F  </i>
    <v name="ROPT">      0.00000000      0.00000000</v>
    <i type="int" name="LMAXPAW">  -100</i>
    <i type="int" name="LMAXMIX">     2</i>
    <i type="logical" name="NLSPLINE"> F  </i>
   </separator>
   <separator name="electronic startup" >
    <i type="int" name="ISTART">     0</i>
    <i type="int" name="ICHARG">     2</i>
    <i type="int" name="INIWAV">     1</i>
   </separator>
   <separator name="electronic spin" >
    <i type="int" name="ISPIN">     1</i>
    <i type="logical" name="LNONCOLLINEAR"> F  </i>
    <v name="MAGMOM">      1.00000000      1.00000000      1.00000000      1.00000000      1.00000000      1.00000000      1.00000000      1.00000000</v>
    <i name="NUPDOWN">     -1.00000000</i>
    <i type="logical" name="LSORBIT"> F  </i>
    <v name="SAXIS">      0.00000000      0.00000000      1.00000000</v>
    <i type="logical" name="LSPIRAL"> F  </i>
    <v name="QSPIRAL">      0.00000000      0.00000000      0.00000000</v>
    <i type="logical" name="LZEROZ"> F  </i>
   </separator>
   <separator name="electronic exchange-correlation" >
    <i type="logical" name="LASPH"> F  </i>
    <i type="logical" name="LMETAGGA"> F  </i>
   </separator>
   <separator name="electronic convergence" >
    <i type="int" name="NELM">    60</i>
    <i type="int" name="NELMDL">    -5</i>
    <i type="int" name="NELMIN">     2</i>
    <i name="ENINI">    450.00000000</i>
    <separator name="electronic convergence detail" >
     <i type="logical" name="LDIAG"> T  </i>
     <i type="logical" name="LSUBROT"> F  </i>
     <i name="WEIMIN">      0.00100000</i>
     <i name="EBREAK">      0.00000000</i>
     <i name="DEPER">      0.30000000</i>
     <i type="int" name="NRMM">     4</i>
     <i name="TIME">      0.40000000</i>
    </separator>
   </separator>
   <separator name="electronic mixer" >
    <i name="AMIX">      0.40000000</i>
    <i name="BMIX">      1.00000000</i>
    <i name="AMIN">      0.10000000</i>
    <i name="AMIX_MAG">      1.60000000</i>
    <i name="BMIX_MAG">      1.00000000</i>
    <separator name="electronic mixer details" >
     <i type="int" name="IMIX">     4</i>
     <i type="logical" name="MIXFIRST"> F  </i>
     <i type="int" name="MAXMIX">   -45</i>
     <i name="WC">    100.00000000</i>
     <i type="int" name="INIMIX">     1</i>
     <i type="int" name="MIXPRE">     1</i>
     <i type="int" name="MREMOVE">     5</i>
    </separator>
   </separator>
   <separator name="electronic dipolcorrection" >
    <i type="logical" name="LDIPOL"> F  </i>
    <i type="logical" name="LMONO"> F  </i>
    <i type="int" name="IDIPOL">     0</i>
    <i name="EPSILON">      1.00000000</i>
    <v name="DIPOL">   -100.00000000   -100.00000000   -100.00000000</v>
    <i name="EFIELD">      0.00000000</i>
   </separator>
  </separator>
  <separator name="grids" >
   <i type="int" name="NGX">    36</i>
   <i type="int" name="NGY">    36</i>
   <i type="int" name="NGZ">   140</i>
   <i type="int" name="NGXF">    72</i>
   <i type="int" name="NGYF">    72</i>
   <i type="int" name="NGZF">   280</i>
   <i type="logical" name="ADDGRID"> F  </i>
  </separator>
  <separator name="ionic" >
   <i type="int" name="NSW">    10</i>
   <i type="int" name="IBRION">     2</i>
   <i type="int" name="MDALGO">     0</i>
   <i type="int" name="ISIF">     2</i>
   <i name="PSTRESS">      0.00000000</i>
   <i name="EDIFFG">     -0.00000100</i>
   <i type="int" name="NFREE">     1</i>
   <i name="POTIM">      0.50000000</i>
   <i name="SMASS">     -3.00000000</i>
   <i name="SCALEE">      1.00000000</i>
  </separator>
  <separator name="ionic md" >
   <i name="TEBEG">      0.00010000</i>
   <i name="TEEND">      0.00010000</i>
   <i type="int" name="NBLOCK">     1</i>
   <i type="int" name="KBLOCK">    10</i>
   <i type="int" name="NPACO">   256</i>
   <i name="APACO">     16.00000000</i>
  </separator>
  <separator name="symmetry" >
   <i type="int" name="ISYM">     2</i>
   <i name="SYMPREC">      0.00001000</i>
  </separator>
  <separator name="dos" >
   <i type="int" name="LORBIT">     0</i>
   <v name="RWIGS">     -1.00000000     -1.00000000</v>
   <i type="int" name="NEDOS">   301</i>
   <i name="EMIN">     10.00000000</i>
   <i name="EMAX">    -10.00000000</i>
   <i name="EFERMI">      0.00000000</i>
  </separator>
  <separator name="writing" >
   <i type="int" name="NWRITE">     2</i>
   <i type="logical" name="LWAVE"> T  </i>
   <i type="logical" name="LDOWNSAMPLE"> F  </i>
   <i type="logical" name="LCHARG"> T  </i>
   <i type="logical" name="LPARD"> F  </i>
   <i type="logical" name="LVTOT"> F  </i>
   <i type="logical" name="LVHAR"> F  </i>
   <i type="logical" name="LELF"> F  </i>
   <i type="logical" name="LOPTICS"> F  </i>
   <v name="STM">      0.00000000      0.00000000      0.00000000      0.00000000      0.00000000      0.00000000      0.00000000</v>
  </separator>
  <separator name="performance" >
   <i type="int" name="NPAR">    12</i>
   <i type="int" name="NSIM">     4</i>
   <i type="int" name="NBLK">    -1</i>
   <i type="logical" name="LPLANE"> T  </i>
   <i type="logical" name="LSCALAPACK"> T  </i>
   <i type="logical" name="LSCAAWARE"> F  </i>
   <i type="logical" name="LSCALU"> F  </i>
   <i type="logical" name="LASYNC"> F  </i>
   <i type="logical" name="LORBITALREAL"> F  </i>
  </separator>
  <separator name="miscellaneous" >
   <i type="int" name="IDIOT">     3</i>
   <i type="int" name="ISPECIAL">     0</i>
   <i type="logical" name="LMUSIC"> F  </i>
   <v name="POMASS">     10.81100000     12.01100000</v>
   <v name="DARWINR">      0.00000000      0.00000000</v>
   <v name="DARWINV">      1.00000000      1.00000000</v>
   <i type="logical" name="LCORR"> T  </i>
  </separator>
  <i type="logical" name="GGA_COMPAT"> T  </i>
  <i type="logical" name="LBERRY"> F  </i>
  <i type="int" name="ICORELEVEL">     0</i>
  <i type="logical" name="LDAU"> F  </i>
  <i type="int" name="I_CONSTRAINED_M">     0</i>
  <separator name="electronic exchange-correlation" >
   <i type="string" name="GGA">--</i>
   <i type="int" name="VOSKOWN">     0</i>
   <i type="logical" name="LHFCALC"> F  </i>
   <i type="string" name="PRECFOCK"></i>
   <i type="logical" name="LSYMGRAD"> F  </i>
   <i type="logical" name="LHFONE"> F  </i>
   <i type="logical" name="LRHFCALC"> F  </i>
   <i type="logical" name="LTHOMAS"> F  </i>
   <i type="logical" name="LMODELHF"> F  </i>
   <i name="ENCUT4O">     -1.00000000</i>
   <i type="int" name="EXXOEP">     0</i>
   <i type="int" name="FOURORBIT">     0</i>
   <i name="AEXX">      0.00000000</i>
   <i name="HFALPHA">      0.00000000</i>
   <i name="MCALPHA">      0.00000000</i>
   <i name="ALDAX">      1.00000000</i>
   <i name="AGGAX">      1.00000000</i>
   <i name="ALDAC">      1.00000000</i>
   <i name="AGGAC">      1.00000000</i>
   <i type="int" name="NKREDX">     1</i>
   <i type="int" name="NKREDY">     1</i>
   <i type="int" name="NKREDZ">     1</i>
   <i type="logical" name="SHIFTRED"> F  </i>
   <i type="logical" name="ODDONLY"> F  </i>
   <i type="logical" name="EVENONLY"> F  </i>
   <i type="int" name="LMAXFOCK">     0</i>
   <i type="int" name="NMAXFOCKAE">     0</i>
   <i type="logical" name="LFOCKAEDFT"> F  </i>
   <i name="HFSCREEN">      0.00000000</i>
   <i name="HFSCREENC">      0.00000000</i>
   <i type="int" name="NBANDSGWLOW">     0</i>
  </separator>
  <separator name="vdW DFT" >
   <i type="logical" name="LUSE_VDW"> F  </i>
   <i name="Zab_VDW">     -0.84910000</i>
   <i name="PARAM1">      0.12340000</i>
   <i name="PARAM2">      1.00000000</i>
   <i name="PARAM3">      0.00000000</i>
  </separator>
  <separator name="model GW" >
   <i type="int" name="MODEL_GW">     0</i>
   <i name="MODEL_EPS0">     34.77704100</i>
   <i name="MODEL_ALPHA">      1.00000000</i>
  </separator>
  <separator name="linear response parameters" >
   <i type="logical" name="LEPSILON"> F  </i>
   <i type="logical" name="LRPA"> F  </i>
   <i type="logical" name="LNABLA"> F  </i>
   <i type="logical" name="LVEL"> F  </i>
   <i type="int" name="KINTER">     0</i>
   <i name="CSHIFT">      0.10000000</i>
   <i name="OMEGAMAX">     -1.00000000</i>
   <i name="DEG_THRESHOLD">      0.00200000</i>
   <i name="RTIME">     -0.10000000</i>
   <i name="WPLASMAI">      0.00000000</i>
   <v name="DFIELD">      0.00000000      0.00000000      0.00000000</v>
   <v name="WPLASMA">      0.00000000      0.00000000      0.00000000      0.00000000      0.00000000      0.00000000      0.00000000      0.00000000      0.00000000</v>
  </separator>
  <separator name="orbital magnetization" >
   <i type="logical" name="NUCIND"> F  </i>
   <v name="MAGPOS">      0.00000000      0.00000000      0.00000000</v>
   <i type="logical" name="LNICSALL"> T  </i>
   <i type="logical" name="ORBITALMAG"> F  </i>
   <i type="logical" name="LMAGBLOCH"> F  </i>
   <i type="logical" name="LCHIMAG"> F  </i>
   <i type="logical" name="LGAUGE"> T  </i>
   <i type="int" name="MAGATOM">     0</i>
   <v name="MAGDIPOL">      0.00000000      0.00000000      0.00000000</v>
   <v name="AVECCONST">      0.00000000      0.00000000      0.00000000</v>
  </separator>
  <separator name="response functions" >
   <i type="logical" name="LADDER"> F  </i>
   <i type="logical" name="LRPAFORCE"> F  </i>
   <i type="logical" name="LFXC"> F  </i>
   <i type="logical" name="LHARTREE"> T  </i>
   <i type="int" name="IBSE">     0</i>
   <v type="int" name="KPOINT">    -1     0     0     0</v>
   <i type="logical" name="LTCTE"> F  </i>
   <i type="logical" name="LTETE"> F  </i>
   <i type="logical" name="LTRIPLET"> F  </i>
   <i type="logical" name="LFXCEPS"> F  </i>
   <i type="logical" name="LFXHEG"> F  </i>
   <i type="int" name="NATURALO">     2</i>
   <i type="logical" name="L2ORDER"> F  </i>
   <i type="logical" name="LMP2LT"> F  </i>
   <i type="logical" name="LUSEW"> F  </i>
   <i name="ENCUTGW">     -2.00000000</i>
   <i name="ENCUTGWSOFT">     -2.00000000</i>
   <i name="ENCUTLF">     -1.00000000</i>
   <i type="int" name="LMAXMP2">    -1</i>
   <i name="SCISSOR">      0.00000000</i>
   <i type="int" name="NOMEGA">     0</i>
   <i type="int" name="NOMEGAR">     0</i>
   <i type="int" name="NBANDSGW">    -1</i>
   <i type="int" name="NBANDSO">    -1</i>
   <i type="int" name="NBANDSV">    -1</i>
   <i type="int" name="NELM">     1</i>
   <i type="int" name="NELMHF">     1</i>
   <i type="int" name="DIM">     3</i>
   <i type="int" name="ANTIRES">     0</i>
   <i name="OMEGAMAX">    -30.00000000</i>
   <i name="OMEGAMIN">    -30.00000000</i>
   <i name="OMEGATL">   -200.00000000</i>
   <i type="int" name="OMEGAGRID">   140</i>
   <i name="CSHIFT">     -0.10000000</i>
   <i type="logical" name="SELFENERGY"> F  </i>
   <i type="logical" name="LSPECTRAL"> F  </i>
   <i type="logical" name="LSPECTRALGW"> F  </i>
   <i type="logical" name="LSINGLES"> F  </i>
   <i type="logical" name="LFERMIGW"> F  </i>
   <i type="logical" name="ODDONLYGW"> F  </i>
   <i type="logical" name="EVENONLYGW"> F  </i>
   <i type="int" name="NKREDLFX">     1</i>
   <i type="int" name="NKREDLFY">     1</i>
   <i type="int" name="NKREDLFZ">     1</i>
   <i type="int" name="MAXMEM">  2800</i>
   <i type="int" name="TELESCOPE">     0</i>
   <i type="int" name="TAUPAR">     1</i>
   <i type="int" name="OMEGAPAR">    -1</i>
   <i name="LAMBDA">      1.00000000</i>
  </separator>
  <separator name="External order field" >
   <i name="OFIELD_KAPPA">      0.00000000</i>
   <v name="OFIELD_K">      0.00000000      0.00000000      0.00000000</v>
   <i name="OFIELD_Q6_NEAR">      0.00000000</i>
   <i name="OFIELD_Q6_FAR">      0.00000000</i>
   <i name="OFIELD_A">      0.00000000</i>
  </separator>
 </parameters>
 <atominfo>
  <atoms>       8 </atoms>
  <types>       2 </types>
  <array name="atoms" >
   <dimension dim="1">ion</dimension>
   <field type="string">element</field>
   <field type="int">atomtype</field>
   <set>
    <rc><c>B </c><c>   1</c></rc>
    <rc><c>B </c><c>   1</c></rc>
    <rc><c>C </c><c>   2</c></rc>
    <rc><c>C </c><c>   2</c></rc>
    <rc><c>C </c><c>   2</c></rc>
    <rc><c>C </c><c>   2</c></rc>
    <rc><c>C </c><c>   2</c></rc>
    <rc><c>C </c><c>   2</c></rc>
   </set>
  </array>
  <array name="atomtypes" >
   <dimension dim="1">type</dimension>
   <field type="int">atomspertype</field>
   <field type="string">element</field>
   <field>mass</field>
   <field>valence</field>
   <field type="string">pseudopotential</field>
   <set>
    <rc><c>   2</c><c>B </c><c>     10.81100000</c><c>      3.00000000</c><c>  PAW_PBE B 06Sep2000                   </c></rc>
    <rc><c>   6</c><c>C </c><c>     12.01100000</c><c>      4.00000000</c><c>  PAW_PBE C 08Apr2002                   </c></rc>
   </set>
  </array>
 </atominfo>
 <structure name="initialpos" >
  <crystal>
   <varray name="basis" >
    <v>       5.17400000       0.00000000       0.00000000 </v>
    <v>       2.58700000       4.48100000       0.00000000 </v>
    <v>       0.00000000       0.00000000      20.00000000 </v>
   </varray>
   <i name="volume">    463.69388000 </i>
   <varray name="rec_basis" >
    <v>       0.19327406      -0.11158224       0.00000000 </v>
    <v>       0.00000000       0.22316447       0.00000000 </v>
    <v>       0.00000000       0.00000000       0.05000000 </v>
   </varray>
  </crystal>
  <varray name="positions" >
   <v>       0.17457326       0.17462620       0.00000000 </v>
   <v>       0.50792519       0.50792234       0.00000000 </v>
   <v>       0.00000000       0.00000000       0.00000000 </v>
   <v>       0.52377271       0.00000000       0.00000000 </v>
   <v>       0.68255138       0.15866994       0.00000000 </v>
   <v>       0.99994706       0.52387860       0.00000000 </v>
   <v>       0.15872573       0.68254854       0.00000000 </v>
   <v>       0.68249844       0.68254854       0.00000000 </v>
  </varray>
 </structure>
 <calculation>
  <scstep>
   <time name="dav">   15.34   15.35</time>
   <time name="total">   15.49   15.50</time>
   <energy>
    <i name="alphaZ">     10.93933817 </i>
    <i name="ewald">   4060.05404224 </i>
    <i name="hartreedc">  -4796.78910906 </i>
    <i name="XCdc">     91.14028263 </i>
    <i name="pawpsdc">    738.13200929 </i>
    <i name="pawaedc">   -739.83780425 </i>
    <i name="eentropy">     -0.05532123 </i>
    <i name="bandstr">   -189.13035106 </i>
    <i name="atom">   1025.20389953 </i>
    <i name="e_fr_energy">    199.65698627 </i>
    <i name="e_wo_entrp">    199.71230750 </i>
    <i name="e_0_energy">    199.68464688 </i>
   </energy>
  </scstep>
  <scstep>
   <time name="dav">   20.56   20.56</time>
   <time name="total">   20.56   20.56</time>
   <energy>
    <i name="e_fr_energy">    -40.05254264 </i>
    <i name="e_wo_entrp">    -40.04194880 </i>
    <i name="e_0_energy">    -40.04724572 </i>
   </energy>
  </scstep>
  <scstep>
   <time name="dav">   17.40   17.40</time>
   <time name="total">   17.40   17.40</time>
   <energy>
    <i name="e_fr_energy">    -71.91598460 </i>
    <i name="e_wo_entrp">    -71.91598460 </i>
    <i name="e_0_energy">    -71.91598460 </i>
   </energy>
  </scstep>
  <scstep>
   <time name="dav">   19.07   19.08</time>
   <time name="total">   19.07   19.08</time>
   <energy>
    <i name="e_fr_energy">    -72.65317212 </i>
    <i name="e_wo_entrp">    -72.65317212 </i>
    <i name="e_0_energy">    -72.65317212 </i>
   </energy>
  </scstep>
  <scstep>
   <time name="dav">   17.41   17.41</time>
   <time name="total">   18.64   18.65</time>
   <energy>
    <i name="e_fr_energy">    -72.67221455 </i>
    <i name="e_wo_entrp">    -72.67221455 </i>
    <i name="e_0_energy">    -72.67221455 </i>
   </energy>
  </scstep>
  <scstep>
   <time name="dav">   19.46   19.46</time>
   <time name="total">   20.82   20.83</time>
   <energy>
    <i name="e_fr_energy">    -68.04034843 </i>
    <i name="e_wo_entrp">    -68.04034792 </i>
    <i name="e_0_energy">    -68.04034818 </i>
   </energy>
  </scstep>
  <scstep>
   <time name="dav">   19.36   19.36</time>
   <time name="total">   20.74   20.75</time>
   <energy>
    <i name="e_fr_energy">    -66.36728312 </i>
    <i name="e_wo_entrp">    -66.36646188 </i>
    <i name="e_0_energy">    -66.36687250 </i>
   </energy>
  </scstep>
  <scstep>
   <time name="dav">   19.26   19.26</time>
   <time name="total">   20.65   20.65</time>
   <energy>
    <i name="e_fr_energy">    -66.27991224 </i>
    <i name="e_wo_entrp">    -66.27812723 </i>
    <i name="e_0_energy">    -66.27901973 </i>
   </energy>
  </scstep>
  <scstep>
   <time name="dav">   16.84   16.84</time>
   <time name="total">   18.23   18.23</time>
   <energy>
    <i name="e_fr_energy">    -66.26283944 </i>
    <i name="e_wo_entrp">    -66.26103060 </i>
    <i name="e_0_energy">    -66.26193502 </i>
   </energy>
  </scstep>
  <scstep>
   <time name="dav">   17.09   17.10</time>
   <time name="total">   18.48   18.50</time>
   <energy>
    <i name="e_fr_energy">    -66.25088154 </i>
    <i name="e_wo_entrp">    -66.24850827 </i>
    <i name="e_0_energy">    -66.24969490 </i>
   </energy>
  </scstep>
  <scstep>
   <time name="dav">   16.35   16.36</time>
   <time name="total">   17.77   17.78</time>
   <energy>
    <i name="e_fr_energy">    -66.25034659 </i>
    <i name="e_wo_entrp">    -66.24781708 </i>
    <i name="e_0_energy">    -66.24908183 </i>
   </energy>
  </scstep>
  <scstep>
   <time name="dav">   15.42   15.43</time>
   <time name="total">   16.82   16.82</time>
   <energy>
    <i name="e_fr_energy">    -66.25014463 </i>
    <i name="e_wo_entrp">    -66.24743690 </i>
    <i name="e_0_energy">    -66.24879076 </i>
   </energy>
  </scstep>
  <scstep>
   <time name="dav">   15.08   15.08</time>
   <time name="total">   16.47   16.47</time>
   <energy>
    <i name="e_fr_energy">    -66.25439677 </i>
    <i name="e_wo_entrp">    -66.25165916 </i>
    <i name="e_0_energy">    -66.25302797 </i>
   </energy>
  </scstep>
  <scstep>
   <time name="dav">   15.55   15.56</time>
   <time name="total">   16.95   16.96</time>
   <energy>
    <i name="e_fr_energy">    -66.25697965 </i>
    <i name="e_wo_entrp">    -66.25426514 </i>
    <i name="e_0_energy">    -66.25562240 </i>
   </energy>
  </scstep>
  <scstep>
   <time name="dav">   15.42   15.43</time>
   <time name="total">   16.84   16.84</time>
   <energy>
    <i name="e_fr_energy">    -66.25772621 </i>
    <i name="e_wo_entrp">    -66.25500697 </i>
    <i name="e_0_energy">    -66.25636659 </i>
   </energy>
  </scstep>
  <scstep>
   <time name="dav">   14.67   14.67</time>
   <time name="total">   16.06   16.06</time>
   <energy>
    <i name="e_fr_energy">    -66.25809896 </i>
    <i name="e_wo_entrp">    -66.25538379 </i>
    <i name="e_0_energy">    -66.25674138 </i>
   </energy>
  </scstep>
  <scstep>
   <time name="dav">   15.58   15.58</time>
   <time name="total">   16.98   16.98</time>
   <energy>
    <i name="e_fr_energy">    -66.25816419 </i>
    <i name="e_wo_entrp">    -66.25544717 </i>
    <i name="e_0_energy">    -66.25680568 </i>
   </energy>
  </scstep>
  <scstep>
   <time name="dav">   15.14   15.14</time>
   <time name="total">   16.53   16.53</time>
   <energy>
    <i name="e_fr_energy">    -66.25820166 </i>
    <i name="e_wo_entrp">    -66.25548519 </i>
    <i name="e_0_energy">    -66.25684343 </i>
   </energy>
  </scstep>
  <scstep>
   <time name="dav">   15.58   15.58</time>
   <time name="total">   17.00   17.00</time>
   <energy>
    <i name="e_fr_energy">    -66.25821569 </i>
    <i name="e_wo_entrp">    -66.25549851 </i>
    <i name="e_0_energy">    -66.25685710 </i>
   </energy>
  </scstep>
  <scstep>
   <time name="dav">   12.32   12.32</time>
   <time name="total">   13.73   13.74</time>
   <energy>
    <i name="e_fr_energy">    -66.25822433 </i>
    <i name="e_wo_entrp">    -66.25550724 </i>
    <i name="e_0_energy">    -66.25686578 </i>
   </energy>
  </scstep>
  <scstep>
   <time name="dav">   12.28   12.28</time>
   <time name="total">   13.69   13.69</time>
   <energy>
    <i name="e_fr_energy">    -66.25823066 </i>
    <i name="e_wo_entrp">    -66.25551391 </i>
    <i name="e_0_energy">    -66.25687229 </i>
   </energy>
  </scstep>
  <scstep>
   <time name="dav">   12.31   12.31</time>
   <time name="total">   13.72   13.72</time>
   <energy>
    <i name="e_fr_energy">    -66.25823195 </i>
    <i name="e_wo_entrp">    -66.25551499 </i>
    <i name="e_0_energy">    -66.25687347 </i>
   </energy>
  </scstep>
  <scstep>
   <time name="dav">   12.50   12.50</time>
   <time name="total">   12.64   12.64</time>
   <energy>
    <i name="alphaZ">     10.93933817 </i>
    <i name="ewald">   4060.05404224 </i>
    <i name="hartreedc">  -4940.81282243 </i>
    <i name="XCdc">     96.11787112 </i>
    <i name="pawpsdc">   2909.83201774 </i>
    <i name="pawaedc">  -2912.38292844 </i>
    <i name="eentropy">     -0.00271701 </i>
    <i name="bandstr">   -315.20693310 </i>
    <i name="atom">   1025.20389953 </i>
    <i name="e_fr_energy">    -66.25823218 </i>
    <i name="e_wo_entrp">    -66.25551517 </i>
    <i name="e_0_energy">    -66.25687368 </i>
   </energy>
  </scstep>
  <structure>
   <crystal>
    <varray name="basis" >
     <v>       5.17400000       0.00000000       0.00000000 </v>
     <v>       2.58700000       4.48100000       0.00000000 </v>
     <v>       0.00000000       0.00000000      20.00000000 </v>
    </varray>
    <i name="volume">    463.69388000 </i>
    <varray name="rec_basis" >
     <v>       0.19327406      -0.11158224       0.00000000 </v>
     <v>       0.00000000       0.22316447       0.00000000 </v>
     <v>       0.00000000       0.00000000       0.05000000 </v>
    </varray>
   </crystal>
   <varray name="positions" >
    <v>       0.17457326       0.17462620       0.00000000 </v>
    <v>       0.50792519       0.50792234       0.00000000 </v>
    <v>       0.00000000       0.00000000       0.00000000 </v>
    <v>       0.52377271       0.00000000       0.00000000 </v>
    <v>       0.68255138       0.15866994       0.00000000 </v>
    <v>       0.99994706       0.52387860       0.00000000 </v>
    <v>       0.15872573       0.68254854       0.00000000 </v>
    <v>       0.68249844       0.68254854       0.00000000 </v>
   </varray>
  </structure>
  <varray name="forces" >
   <v>       0.00000000      -0.03187062       0.00000000 </v>
   <v>       0.00000000       0.03187062      -0.00000000 </v>
   <v>      -0.25674415      -0.07970247       0.00000000 </v>
   <v>       0.25674415      -0.07970247       0.00000000 </v>
   <v>      -0.00000000      -0.32019258       0.00000000 </v>
   <v>       0.00000000       0.32019258       0.00000000 </v>
   <v>      -0.25674415       0.07970247       0.00000000 </v>
   <v>       0.25674415       0.07970247       0.00000000 </v>
  </varray>
  <varray name="stress" >
   <v>       2.80742464      -0.00000000       0.00000000 </v>
   <v>      -0.00000000       3.35718498       0.00000000 </v>
   <v>       0.00000000       0.00000000      -0.62581682 </v>
  </varray>
  <energy>
   <i name="e_fr_energy">    -66.25823218 </i>
   <i name="e_wo_entrp">    -66.25687368 </i>
   <i name="e_0_energy">     -0.00271701 </i>
  </energy>
  <time name="totalsc">  411.75  412.12</time>
 </calculation>
 <calculation>
  <scstep>
   <time name="dav">   14.59   14.61</time>
   <time name="total">   16.01   16.02</time>
   <energy>
    <i name="alphaZ">     10.93933817 </i>
    <i name="ewald">   4064.81924941 </i>
    <i name="hartreedc">  -4944.17819809 </i>
    <i name="XCdc">     96.19279004 </i>
    <i name="pawpsdc">   2909.83248908 </i>
    <i name="pawaedc">  -2912.38339750 </i>
    <i name="eentropy">     -0.00159574 </i>
    <i name="bandstr">   -316.67453891 </i>
    <i name="atom">   1025.20389953 </i>
    <i name="e_fr_energy">    -66.24996401 </i>
    <i name="e_wo_entrp">    -66.24836827 </i>
    <i name="e_0_energy">    -66.24916614 </i>
   </energy>
  </scstep>
  <scstep>
   <time name="dav">   17.39   17.40</time>
   <time name="total">   18.79   18.80</time>
   <energy>
    <i name="e_fr_energy">    -66.24554932 </i>
    <i name="e_wo_entrp">    -66.24352411 </i>
    <i name="e_0_energy">    -66.24453671 </i>
   </energy>
  </scstep>
  <scstep>
   <time name="dav">   14.84   14.85</time>
   <time name="total">   16.24   16.26</time>
   <energy>
    <i name="e_fr_energy">    -66.24446165 </i>
    <i name="e_wo_entrp">    -66.24217315 </i>
    <i name="e_0_energy">    -66.24331740 </i>
   </energy>
  </scstep>
  <scstep>
   <time name="dav">   15.40   15.41</time>
   <time name="total">   16.79   16.81</time>
   <energy>
    <i name="e_fr_energy">    -66.24445757 </i>
    <i name="e_wo_entrp">    -66.24225198 </i>
    <i name="e_0_energy">    -66.24335477 </i>
   </energy>
  </scstep>
  <scstep>
   <time name="dav">   14.66   14.68</time>
   <time name="total">   16.05   16.07</time>
   <energy>
    <i name="e_fr_energy">    -66.24446493 </i>
    <i name="e_wo_entrp">    -66.24226038 </i>
    <i name="e_0_energy">    -66.24336265 </i>
   </energy>
  </scstep>
  <scstep>
   <time name="dav">   15.94   15.97</time>
   <time name="total">   17.33   17.37</time>
   <energy>
    <i name="e_fr_energy">    -66.24446761 </i>
    <i name="e_wo_entrp">    -66.24226612 </i>
    <i name="e_0_energy">    -66.24336687 </i>
   </energy>
  </scstep>
  <scstep>
   <time name="dav">   17.35   17.37</time>
   <time name="total">   18.76   18.78</time>
   <energy>
    <i name="e_fr_energy">    -66.24447081 </i>
    <i name="e_wo_entrp">    -66.24226901 </i>
    <i name="e_0_energy">    -66.24336991 </i>
   </energy>
  </scstep>
  <scstep>
   <time name="dav">   15.43   15.44</time>
   <time name="total">   16.84   16.85</time>
   <energy>
    <i name="e_fr_energy">    -66.24447207 </i>
    <i name="e_wo_entrp">    -66.24227054 </i>
    <i name="e_0_energy">    -66.24337131 </i>
   </energy>
  </scstep>
  <scstep>
   <time name="dav">   15.05   15.07</time>
   <time name="total">   16.47   16.50</time>
   <energy>
    <i name="e_fr_energy">    -66.24447546 </i>
    <i name="e_wo_entrp">    -66.24227339 </i>
    <i name="e_0_energy">    -66.24337443 </i>
   </energy>
  </scstep>
  <scstep>
   <time name="dav">   12.90   12.91</time>
   <time name="total">   14.31   14.33</time>
   <energy>
    <i name="e_fr_energy">    -66.24447738 </i>
    <i name="e_wo_entrp">    -66.24227439 </i>
    <i name="e_0_energy">    -66.24337589 </i>
   </energy>
  </scstep>
  <scstep>
   <time name="dav">   14.71   14.72</time>
   <time name="total">   16.12   16.13</time>
   <energy>
    <i name="e_fr_energy">    -66.24447971 </i>
    <i name="e_wo_entrp">    -66.24227634 </i>
    <i name="e_0_energy">    -66.24337802 </i>
   </energy>
  </scstep>
  <scstep>
   <time name="dav">   12.86   12.88</time>
   <time name="total">   14.28   14.30</time>
   <energy>
    <i name="e_fr_energy">    -66.24448083 </i>
    <i name="e_wo_entrp">    -66.24227746 </i>
    <i name="e_0_energy">    -66.24337915 </i>
   </energy>
  </scstep>
  <scstep>
   <time name="dav">   12.76   12.76</time>
   <time name="total">   12.90   12.91</time>
   <energy>
    <i name="alphaZ">     10.93933817 </i>
    <i name="ewald">   4064.81924941 </i>
    <i name="hartreedc">  -4945.62535000 </i>
    <i name="XCdc">     96.24645616 </i>
    <i name="pawpsdc">   2935.93258745 </i>
    <i name="pawaedc">  -2938.49289683 </i>
    <i name="eentropy">     -0.00220341 </i>
    <i name="bandstr">   -315.26556163 </i>
    <i name="atom">   1025.20389953 </i>
    <i name="e_fr_energy">    -66.24448115 </i>
    <i name="e_wo_entrp">    -66.24227773 </i>
    <i name="e_0_energy">    -66.24337944 </i>
   </energy>
  </scstep>
  <structure>
   <crystal>
    <varray name="basis" >
     <v>       5.17400000       0.00000000       0.00000000 </v>
     <v>       2.58700000       4.48100000       0.00000000 </v>
     <v>       0.00000000       0.00000000      20.00000000 </v>
    </varray>
    <i name="volume">    463.69388000 </i>
    <varray name="rec_basis" >
     <v>       0.19327406      -0.11158224       0.00000000 </v>
     <v>       0.00000000       0.22316447       0.00000000 </v>
     <v>       0.00000000       0.00000000       0.05000000 </v>
    </varray>
   </crystal>
   <varray name="positions" >
    <v>       0.17474482       0.17428308       0.00000000 </v>
    <v>       0.50775363       0.50826546      -0.00000000 </v>
    <v>      -0.00196486      -0.00085808       0.00000000 </v>
    <v>       0.52659565      -0.00085808       0.00000000 </v>
    <v>       0.68427499       0.15522273       0.00000000 </v>
    <v>       0.99822345       0.52732581       0.00000000 </v>
    <v>       0.15590279       0.68340662       0.00000000 </v>
    <v>       0.68446330       0.68340662       0.00000000 </v>
   </varray>
  </structure>
  <varray name="forces" >
   <v>       0.00000000       0.08480099       0.00000000 </v>
   <v>      -0.00000000      -0.08480099      -0.00000000 </v>
   <v>       0.55808490       0.04221990      -0.00000000 </v>
   <v>      -0.55808490       0.04221990       0.00000000 </v>
   <v>       0.00000000       0.75509248       0.00000000 </v>
   <v>       0.00000000      -0.75509248      -0.00000000 </v>
   <v>       0.55808490      -0.04221990       0.00000000 </v>
   <v>      -0.55808490      -0.04221990       0.00000000 </v>
  </varray>
  <varray name="stress" >
   <v>       7.03855004       0.00000000       0.00000000 </v>
   <v>      -0.00000000       5.37208098       0.00000000 </v>
   <v>       0.00000000       0.00000000      -0.62193773 </v>
  </varray>
  <energy>
   <i name="e_fr_energy">    -66.24448115 </i>
   <i name="e_wo_entrp">    -66.24337944 </i>
   <i name="e_0_energy">     -0.00220341 </i>
  </energy>
  <time name="totalsc">  225.70  226.00</time>
 </calculation>
 <calculation>
  <scstep>
   <time name="dav">   14.59   14.61</time>
   <time name="total">   16.02   16.03</time>
   <energy>
    <i name="alphaZ">     10.93933817 </i>
    <i name="ewald">   4061.51773641 </i>
    <i name="hartreedc">  -4943.27133565 </i>
    <i name="XCdc">     96.19366061 </i>
    <i name="pawpsdc">   2935.92967434 </i>
    <i name="pawaedc">  -2938.48998321 </i>
    <i name="eentropy">     -0.00306143 </i>
    <i name="bandstr">   -314.28456105 </i>
    <i name="atom">   1025.20389953 </i>
    <i name="e_fr_energy">    -66.26463228 </i>
    <i name="e_wo_entrp">    -66.26157085 </i>
    <i name="e_0_energy">    -66.26310157 </i>
   </energy>
  </scstep>
  <scstep>
   <time name="dav">   14.96   14.98</time>
   <time name="total">   16.36   16.37</time>
   <energy>
    <i name="e_fr_energy">    -66.26251939 </i>
    <i name="e_wo_entrp">    -66.25993359 </i>
    <i name="e_0_energy">    -66.26122649 </i>
   </energy>
  </scstep>
  <scstep>
   <time name="dav">   16.13   16.14</time>
   <time name="total">   17.53   17.54</time>
   <energy>
    <i name="e_fr_energy">    -66.26204544 </i>
    <i name="e_wo_entrp">    -66.25967266 </i>
    <i name="e_0_energy">    -66.26085905 </i>
   </energy>
  </scstep>
  <scstep>
   <time name="dav">   16.06   16.06</time>
   <time name="total">   17.47   17.47</time>
   <energy>
    <i name="e_fr_energy">    -66.26204674 </i>
    <i name="e_wo_entrp">    -66.25961187 </i>
    <i name="e_0_energy">    -66.26082931 </i>
   </energy>
  </scstep>
  <scstep>
   <time name="dav">   15.12   15.13</time>
   <time name="total">   16.52   16.53</time>
   <energy>
    <i name="e_fr_energy">    -66.26205292 </i>
    <i name="e_wo_entrp">    -66.25962418 </i>
    <i name="e_0_energy">    -66.26083855 </i>
   </energy>
  </scstep>
  <scstep>
   <time name="dav">   16.44   16.45</time>
   <time name="total">   17.85   17.86</time>
   <energy>
    <i name="e_fr_energy">    -66.26205502 </i>
    <i name="e_wo_entrp">    -66.25962313 </i>
    <i name="e_0_energy">    -66.26083908 </i>
   </energy>
  </scstep>
  <scstep>
   <time name="dav">   17.50   17.51</time>
   <time name="total">   18.90   18.91</time>
   <energy>
    <i name="e_fr_energy">    -66.26205773 </i>
    <i name="e_wo_entrp">    -66.25962514 </i>
    <i name="e_0_energy">    -66.26084144 </i>
   </energy>
  </scstep>
  <scstep>
   <time name="dav">   16.10   16.11</time>
   <time name="total">   16.24   16.25</time>
   <energy>
    <i name="alphaZ">     10.93933817 </i>
    <i name="ewald">   4061.51773641 </i>
    <i name="hartreedc">  -4942.34609689 </i>
    <i name="XCdc">     96.15815051 </i>
    <i name="pawpsdc">   2917.45610991 </i>
    <i name="pawaedc">  -2920.00974118 </i>
    <i name="eentropy">     -0.00243265 </i>
    <i name="bandstr">   -315.17902235 </i>
    <i name="atom">   1025.20389953 </i>
    <i name="e_fr_energy">    -66.26205854 </i>
    <i name="e_wo_entrp">    -66.25962589 </i>
    <i name="e_0_energy">    -66.26084221 </i>
   </energy>
  </scstep>
  <structure>
   <crystal>
    <varray name="basis" >
     <v>       5.17400000       0.00000000       0.00000000 </v>
     <v>       2.58700000       4.48100000       0.00000000 </v>
     <v>       0.00000000       0.00000000      20.00000000 </v>
    </varray>
    <i name="volume">    463.69388000 </i>
    <varray name="rec_basis" >
     <v>       0.19327406      -0.11158224       0.00000000 </v>
     <v>       0.00000000       0.22316447       0.00000000 </v>
     <v>       0.00000000       0.00000000       0.05000000 </v>
    </varray>
   </crystal>
   <varray name="positions" >
    <v>       0.17462808       0.17451656       0.00000000 </v>
    <v>       0.50787036       0.50803198      -0.00000000 </v>
    <v>      -0.00062787      -0.00027420       0.00000000 </v>
    <v>       0.52467477      -0.00027420       0.00000000 </v>
    <v>       0.68310216       0.15756839       0.00000000 </v>
    <v>       0.99939628       0.52498015       0.00000000 </v>
    <v>       0.15782367       0.68282274       0.00000000 </v>
    <v>       0.68312631       0.68282274       0.00000000 </v>
   </varray>
  </structure>
  <varray name="forces" >
   <v>      -0.00000000       0.00604760       0.00000000 </v>
   <v>       0.00000000      -0.00604760      -0.00000000 </v>
   <v>      -0.00065221      -0.03726342       0.00000000 </v>
   <v>       0.00065221      -0.03726342       0.00000000 </v>
   <v>       0.00000000       0.01927170       0.00000000 </v>
   <v>      -0.00000000      -0.01927170       0.00000000 </v>
   <v>      -0.00065221       0.03726342       0.00000000 </v>
   <v>       0.00065221       0.03726342      -0.00000000 </v>
  </varray>
  <varray name="stress" >
   <v>       4.06270154       0.00000000       0.00000000 </v>
   <v>       0.00000000       3.93028692       0.00000000 </v>
   <v>       0.00000000       0.00000000      -0.63612091 </v>
  </varray>
  <energy>
   <i name="e_fr_energy">    -66.26205854 </i>
   <i name="e_wo_entrp">    -66.26084221 </i>
   <i name="e_0_energy">     -0.00243265 </i>
  </energy>
  <time name="totalsc">  151.66  151.82</time>
 </calculation>
 <calculation>
  <scstep>
   <time name="dav">   14.74   14.79</time>
   <time name="total">   16.14   16.19</time>
   <energy>
    <i name="alphaZ">     10.93933817 </i>
    <i name="ewald">   4061.66163264 </i>
    <i name="hartreedc">  -4942.43399109 </i>
    <i name="XCdc">     96.16028639 </i>
    <i name="pawpsdc">   2917.57684408 </i>
    <i name="pawaedc">  -2920.13050403 </i>
    <i name="eentropy">     -0.00230668 </i>
    <i name="bandstr">   -315.23702014 </i>
    <i name="atom">   1025.20389953 </i>
    <i name="e_fr_energy">    -66.26182113 </i>
    <i name="e_wo_entrp">    -66.25951446 </i>
    <i name="e_0_energy">    -66.26066779 </i>
   </energy>
  </scstep>
  <scstep>
   <time name="dav">   14.66   14.68</time>
   <time name="total">   16.07   16.09</time>
   <energy>
    <i name="e_fr_energy">    -66.26181126 </i>
    <i name="e_wo_entrp">    -66.25949242 </i>
    <i name="e_0_energy">    -66.26065184 </i>
   </energy>
  </scstep>
  <scstep>
   <time name="dav">   16.30   16.32</time>
   <time name="total">   17.71   17.73</time>
   <energy>
    <i name="e_fr_energy">    -66.26180169 </i>
    <i name="e_wo_entrp">    -66.25948057 </i>
    <i name="e_0_energy">    -66.26064113 </i>
   </energy>
  </scstep>
  <scstep>
   <time name="dav">   16.02   16.04</time>
   <time name="total">   16.16   16.17</time>
   <energy>
    <i name="alphaZ">     10.93933817 </i>
    <i name="ewald">   4061.66163264 </i>
    <i name="hartreedc">  -4942.46831427 </i>
    <i name="XCdc">     96.16194890 </i>
    <i name="pawpsdc">   2918.54189431 </i>
    <i name="pawaedc">  -2921.09589282 </i>
    <i name="eentropy">     -0.00232080 </i>
    <i name="bandstr">   -315.20398642 </i>
    <i name="atom">   1025.20389953 </i>
    <i name="e_fr_energy">    -66.26180077 </i>
    <i name="e_wo_entrp">    -66.25947997 </i>
    <i name="e_0_energy">    -66.26064037 </i>
   </energy>
  </scstep>
  <structure>
   <crystal>
    <varray name="basis" >
     <v>       5.17400000       0.00000000       0.00000000 </v>
     <v>       2.58700000       4.48100000       0.00000000 </v>
     <v>       0.00000000       0.00000000      20.00000000 </v>
    </varray>
    <i name="volume">    463.69388000 </i>
    <varray name="rec_basis" >
     <v>       0.19327406      -0.11158224       0.00000000 </v>
     <v>       0.00000000       0.22316447       0.00000000 </v>
     <v>       0.00000000       0.00000000       0.05000000 </v>
    </varray>
   </crystal>
   <varray name="positions" >
    <v>       0.17460191       0.17456889       0.00000000 </v>
    <v>       0.50789653       0.50797965      -0.00000000 </v>
    <v>      -0.00048223      -0.00063057       0.00000000 </v>
    <v>       0.52488551      -0.00063057       0.00000000 </v>
    <v>       0.68303219       0.15770833       0.00000000 </v>
    <v>       0.99946625       0.52484021       0.00000000 </v>
    <v>       0.15761293       0.68317910       0.00000000 </v>
    <v>       0.68298067       0.68317910      -0.00000000 </v>
   </varray>
  </structure>
  <varray name="forces" >
   <v>       0.00000000      -0.03630760      -0.00000000 </v>
   <v>      -0.00000000       0.03630760       0.00000000 </v>
   <v>      -0.00330892       0.11179303      -0.00000000 </v>
   <v>       0.00330892       0.11179303       0.00000000 </v>
   <v>      -0.00000000      -0.04680071      -0.00000000 </v>
   <v>       0.00000000       0.04680071      -0.00000000 </v>
   <v>      -0.00330892      -0.11179303      -0.00000000 </v>
   <v>       0.00330892      -0.11179303      -0.00000000 </v>
  </varray>
  <varray name="stress" >
   <v>       3.70846838       0.00000000       0.00000000 </v>
   <v>       0.00000000       4.47299195       0.00000000 </v>
   <v>       0.00000000       0.00000000      -0.62681666 </v>
  </varray>
  <energy>
   <i name="e_fr_energy">    -66.26180077 </i>
   <i name="e_wo_entrp">    -66.26064037 </i>
   <i name="e_0_energy">     -0.00232080 </i>
  </energy>
  <time name="totalsc">   80.84   81.05</time>
 </calculation>
 <calculation>
  <scstep>
   <time name="dav">   14.60   14.62</time>
   <time name="total">   16.00   16.02</time>
   <energy>
    <i name="alphaZ">     10.93933817 </i>
    <i name="ewald">   4061.55363253 </i>
    <i name="hartreedc">  -4942.38965991 </i>
    <i name="XCdc">     96.16021214 </i>
    <i name="pawpsdc">   2918.43596362 </i>
    <i name="pawaedc">  -2920.98992119 </i>
    <i name="eentropy">     -0.00240529 </i>
    <i name="bandstr">   -315.17316861 </i>
    <i name="atom">   1025.20389953 </i>
    <i name="e_fr_energy">    -66.26210902 </i>
    <i name="e_wo_entrp">    -66.25970373 </i>
    <i name="e_0_energy">    -66.26090637 </i>
   </energy>
  </scstep>
  <scstep>
   <time name="dav">   14.78   14.80</time>
   <time name="total">   16.18   16.20</time>
   <energy>
    <i name="e_fr_energy">    -66.26210282 </i>
    <i name="e_wo_entrp">    -66.25971142 </i>
    <i name="e_0_energy">    -66.26090712 </i>
   </energy>
  </scstep>
  <scstep>
   <time name="dav">   15.61   15.63</time>
   <time name="total">   17.01   17.03</time>
   <energy>
    <i name="e_fr_energy">    -66.26209698 </i>
    <i name="e_wo_entrp">    -66.25971103 </i>
    <i name="e_0_energy">    -66.26090401 </i>
   </energy>
  </scstep>
  <scstep>
   <time name="dav">   15.81   15.83</time>
   <time name="total">   15.95   15.97</time>
   <energy>
    <i name="alphaZ">     10.93933817 </i>
    <i name="ewald">   4061.55363253 </i>
    <i name="hartreedc">  -4942.35525112 </i>
    <i name="XCdc">     96.15893559 </i>
    <i name="pawpsdc">   2917.60423480 </i>
    <i name="pawaedc">  -2920.15791360 </i>
    <i name="eentropy">     -0.00238408 </i>
    <i name="bandstr">   -315.20658836 </i>
    <i name="atom">   1025.20389953 </i>
    <i name="e_fr_energy">    -66.26209653 </i>
    <i name="e_wo_entrp">    -66.25971245 </i>
    <i name="e_0_energy">    -66.26090449 </i>
   </energy>
  </scstep>
  <structure>
   <crystal>
    <varray name="basis" >
     <v>       5.17400000       0.00000000       0.00000000 </v>
     <v>       2.58700000       4.48100000       0.00000000 </v>
     <v>       0.00000000       0.00000000      20.00000000 </v>
    </varray>
    <i name="volume">    463.69388000 </i>
    <varray name="rec_basis" >
     <v>       0.19327406      -0.11158224       0.00000000 </v>
     <v>       0.00000000       0.22316447       0.00000000 </v>
     <v>       0.00000000       0.00000000       0.05000000 </v>
    </varray>
   </crystal>
   <varray name="positions" >
    <v>       0.17462148       0.17452975       0.00000000 </v>
    <v>       0.50787696       0.50801879      -0.00000000 </v>
    <v>      -0.00059115      -0.00036404       0.00000000 </v>
    <v>       0.52472790      -0.00036404       0.00000000 </v>
    <v>       0.68308452       0.15760367       0.00000000 </v>
    <v>       0.99941392       0.52494487       0.00000000 </v>
    <v>       0.15777054       0.68291257       0.00000000 </v>
    <v>       0.68308959       0.68291257      -0.00000000 </v>
   </varray>
  </structure>
  <varray name="forces" >
   <v>      -0.00000000      -0.00440277      -0.00000000 </v>
   <v>       0.00000000       0.00440277       0.00000000 </v>
   <v>      -0.00169977       0.00072768       0.00000000 </v>
   <v>       0.00169977       0.00072768       0.00000000 </v>
   <v>      -0.00000000       0.00271679      -0.00000000 </v>
   <v>       0.00000000      -0.00271679       0.00000000 </v>
   <v>      -0.00169977      -0.00072768       0.00000000 </v>
   <v>       0.00169977      -0.00072768      -0.00000000 </v>
  </varray>
  <varray name="stress" >
   <v>       3.96234986       0.00000000       0.00000000 </v>
   <v>      -0.00000000       4.07928299       0.00000000 </v>
   <v>       0.00000000       0.00000000      -0.62551507 </v>
  </varray>
  <energy>
   <i name="e_fr_energy">    -66.26209653 </i>
   <i name="e_wo_entrp">    -66.26090449 </i>
   <i name="e_0_energy">     -0.00238408 </i>
  </energy>
  <time name="totalsc">   79.87   80.03</time>
 </calculation>
 <calculation>
  <scstep>
   <time name="dav">   15.85   15.86</time>
   <time name="total">   17.26   17.28</time>
   <energy>
    <i name="alphaZ">     10.93933817 </i>
    <i name="ewald">   4061.55334168 </i>
    <i name="hartreedc">  -4942.35357653 </i>
    <i name="XCdc">     96.15893275 </i>
    <i name="pawpsdc">   2917.67287558 </i>
    <i name="pawaedc">  -2920.22658436 </i>
    <i name="eentropy">     -0.00238399 </i>
    <i name="bandstr">   -315.20793954 </i>
    <i name="atom">   1025.20389953 </i>
    <i name="e_fr_energy">    -66.26209671 </i>
    <i name="e_wo_entrp">    -66.25971272 </i>
    <i name="e_0_energy">    -66.26090472 </i>
   </energy>
  </scstep>
  <scstep>
   <time name="dav">   12.42   12.44</time>
   <time name="total">   12.56   12.58</time>
   <energy>
    <i name="alphaZ">     10.93933817 </i>
    <i name="ewald">   4061.55334168 </i>
    <i name="hartreedc">  -4942.35262351 </i>
    <i name="XCdc">     96.15892029 </i>
    <i name="pawpsdc">   2917.70547853 </i>
    <i name="pawaedc">  -2920.25919203 </i>
    <i name="eentropy">     -0.00238410 </i>
    <i name="bandstr">   -315.20887533 </i>
    <i name="atom">   1025.20389953 </i>
    <i name="e_fr_energy">    -66.26209677 </i>
    <i name="e_wo_entrp">    -66.25971268 </i>
    <i name="e_0_energy">    -66.26090472 </i>
   </energy>
  </scstep>
  <structure>
   <crystal>
    <varray name="basis" >
     <v>       5.17400000       0.00000000       0.00000000 </v>
     <v>       2.58700000       4.48100000       0.00000000 </v>
     <v>       0.00000000       0.00000000      20.00000000 </v>
    </varray>
    <i name="volume">    463.69388000 </i>
    <varray name="rec_basis" >
     <v>       0.19327406      -0.11158224       0.00000000 </v>
     <v>       0.00000000       0.22316447       0.00000000 </v>
     <v>       0.00000000       0.00000000       0.05000000 </v>
    </varray>
   </crystal>
   <varray name="positions" >
    <v>       0.17462153       0.17452964       0.00000000 </v>
    <v>       0.50787691       0.50801890      -0.00000000 </v>
    <v>      -0.00059145      -0.00036331       0.00000000 </v>
    <v>       0.52472747      -0.00036331       0.00000000 </v>
    <v>       0.68308466       0.15760338       0.00000000 </v>
    <v>       0.99941378       0.52494515       0.00000000 </v>
    <v>       0.15777097       0.68291185       0.00000000 </v>
    <v>       0.68308989       0.68291185      -0.00000000 </v>
   </varray>
  </structure>
  <varray name="forces" >
   <v>       0.00000000      -0.00444903      -0.00000000 </v>
   <v>       0.00000000       0.00444903      -0.00000000 </v>
   <v>      -0.00146443      -0.00011183       0.00000000 </v>
   <v>       0.00146443      -0.00011183       0.00000000 </v>
   <v>       0.00000000       0.00277934      -0.00000000 </v>
   <v>       0.00000000      -0.00277934      -0.00000000 </v>
   <v>      -0.00146443       0.00011183      -0.00000000 </v>
   <v>       0.00146443       0.00011183      -0.00000000 </v>
  </varray>
  <varray name="stress" >
   <v>       3.97317464       0.00000000       0.00000000 </v>
   <v>      -0.00000000       4.06663557       0.00000000 </v>
   <v>       0.00000000       0.00000000      -0.62620767 </v>
  </varray>
  <energy>
   <i name="e_fr_energy">    -66.26209677 </i>
   <i name="e_wo_entrp">    -66.26090472 </i>
   <i name="e_0_energy">     -0.00238410 </i>
  </energy>
  <time name="totalsc">   44.58   44.70</time>
 </calculation>
 <calculation>
  <scstep>
   <time name="dav">   12.26   12.28</time>
   <time name="total">   13.65   13.67</time>
   <energy>
    <i name="alphaZ">     10.93933817 </i>
    <i name="ewald">   4061.55351306 </i>
    <i name="hartreedc">  -4942.35096978 </i>
    <i name="XCdc">     96.15890268 </i>
    <i name="pawpsdc">   2917.74322718 </i>
    <i name="pawaedc">  -2920.29694893 </i>
    <i name="eentropy">     -0.00238389 </i>
    <i name="bandstr">   -315.21067490 </i>
    <i name="atom">   1025.20389953 </i>
    <i name="e_fr_energy">    -66.26209688 </i>
    <i name="e_wo_entrp">    -66.25971299 </i>
    <i name="e_0_energy">    -66.26090493 </i>
   </energy>
  </scstep>
  <scstep>
   <time name="dav">   12.77   12.78</time>
   <time name="total">   12.90   12.92</time>
   <energy>
    <i name="alphaZ">     10.93933817 </i>
    <i name="ewald">   4061.55351306 </i>
    <i name="hartreedc">  -4942.35040013 </i>
    <i name="XCdc">     96.15889847 </i>
    <i name="pawpsdc">   2917.74709804 </i>
    <i name="pawaedc">  -2920.30082064 </i>
    <i name="eentropy">     -0.00238385 </i>
    <i name="bandstr">   -315.21123957 </i>
    <i name="atom">   1025.20389953 </i>
    <i name="e_fr_energy">    -66.26209692 </i>
    <i name="e_wo_entrp">    -66.25971307 </i>
    <i name="e_0_energy">    -66.26090499 </i>
   </energy>
  </scstep>
  <structure>
   <crystal>
    <varray name="basis" >
     <v>       5.17400000       0.00000000       0.00000000 </v>
     <v>       2.58700000       4.48100000       0.00000000 </v>
     <v>       0.00000000       0.00000000      20.00000000 </v>
    </varray>
    <i name="volume">    463.69388000 </i>
    <varray name="rec_basis" >
     <v>       0.19327406      -0.11158224       0.00000000 </v>
     <v>       0.00000000       0.22316447       0.00000000 </v>
     <v>       0.00000000       0.00000000       0.05000000 </v>
    </varray>
   </crystal>
   <varray name="positions" >
    <v>       0.17462150       0.17452971       0.00000000 </v>
    <v>       0.50787694       0.50801883      -0.00000000 </v>
    <v>      -0.00059127      -0.00036374       0.00000000 </v>
    <v>       0.52472772      -0.00036374       0.00000000 </v>
    <v>       0.68308458       0.15760355       0.00000000 </v>
    <v>       0.99941386       0.52494499       0.00000000 </v>
    <v>       0.15777072       0.68291228       0.00000000 </v>
    <v>       0.68308971       0.68291228      -0.00000000 </v>
   </varray>
  </structure>
  <varray name="forces" >
   <v>       0.00000000      -0.00453602      -0.00000000 </v>
   <v>       0.00000000       0.00453602       0.00000000 </v>
   <v>      -0.00145131       0.00013250       0.00000000 </v>
   <v>       0.00145131       0.00013250      -0.00000000 </v>
   <v>       0.00000000       0.00265735       0.00000000 </v>
   <v>       0.00000000      -0.00265735       0.00000000 </v>
   <v>      -0.00145131      -0.00013250       0.00000000 </v>
   <v>       0.00145131      -0.00013250       0.00000000 </v>
  </varray>
  <varray name="stress" >
   <v>       3.97121508       0.00000000       0.00000000 </v>
   <v>       0.00000000       4.06873271       0.00000000 </v>
   <v>       0.00000000       0.00000000      -0.62538175 </v>
  </varray>
  <energy>
   <i name="e_fr_energy">    -66.26209692 </i>
   <i name="e_wo_entrp">    -66.26090499 </i>
   <i name="e_0_energy">     -0.00238385 </i>
  </energy>
  <time name="totalsc">   41.27   41.38</time>
 </calculation>
 <calculation>
  <scstep>
   <time name="dav">   12.19   12.20</time>
   <time name="total">   13.58   13.60</time>
   <energy>
    <i name="alphaZ">     10.93933817 </i>
    <i name="ewald">   4061.55355871 </i>
    <i name="hartreedc">  -4942.34940755 </i>
    <i name="XCdc">     96.15889182 </i>
    <i name="pawpsdc">   2917.75090171 </i>
    <i name="pawaedc">  -2920.30462569 </i>
    <i name="eentropy">     -0.00238374 </i>
    <i name="bandstr">   -315.21226994 </i>
    <i name="atom">   1025.20389953 </i>
    <i name="e_fr_energy">    -66.26209699 </i>
    <i name="e_wo_entrp">    -66.25971325 </i>
    <i name="e_0_energy">    -66.26090512 </i>
   </energy>
  </scstep>
  <scstep>
   <time name="dav">   12.78   12.80</time>
   <time name="total">   12.92   12.94</time>
   <energy>
    <i name="alphaZ">     10.93933817 </i>
    <i name="ewald">   4061.55355871 </i>
    <i name="hartreedc">  -4942.34902231 </i>
    <i name="XCdc">     96.15888929 </i>
    <i name="pawpsdc">   2917.75141408 </i>
    <i name="pawaedc">  -2920.30513832 </i>
    <i name="eentropy">     -0.00238374 </i>
    <i name="bandstr">   -315.21265243 </i>
    <i name="atom">   1025.20389953 </i>
    <i name="e_fr_energy">    -66.26209702 </i>
    <i name="e_wo_entrp">    -66.25971328 </i>
    <i name="e_0_energy">    -66.26090515 </i>
   </energy>
  </scstep>
  <structure>
   <crystal>
    <varray name="basis" >
     <v>       5.17400000       0.00000000       0.00000000 </v>
     <v>       2.58700000       4.48100000       0.00000000 </v>
     <v>       0.00000000       0.00000000      20.00000000 </v>
    </varray>
    <i name="volume">    463.69388000 </i>
    <varray name="rec_basis" >
     <v>       0.19327406      -0.11158224       0.00000000 </v>
     <v>       0.00000000       0.22316447       0.00000000 </v>
     <v>       0.00000000       0.00000000       0.05000000 </v>
    </varray>
   </crystal>
   <varray name="positions" >
    <v>       0.17462149       0.17452972       0.00000000 </v>
    <v>       0.50787695       0.50801882      -0.00000000 </v>
    <v>      -0.00059123      -0.00036385       0.00000000 </v>
    <v>       0.52472779      -0.00036385       0.00000000 </v>
    <v>       0.68308456       0.15760360       0.00000000 </v>
    <v>       0.99941388       0.52494494       0.00000000 </v>
    <v>       0.15777065       0.68291239       0.00000000 </v>
    <v>       0.68308967       0.68291239      -0.00000000 </v>
   </varray>
  </structure>
  <varray name="forces" >
   <v>       0.00000000      -0.00453942       0.00000000 </v>
   <v>      -0.00000000       0.00453942       0.00000000 </v>
   <v>      -0.00145995       0.00018283       0.00000000 </v>
   <v>       0.00145995       0.00018283       0.00000000 </v>
   <v>      -0.00000000       0.00264131      -0.00000000 </v>
   <v>       0.00000000      -0.00264131       0.00000000 </v>
   <v>      -0.00145995      -0.00018283      -0.00000000 </v>
   <v>       0.00145995      -0.00018283       0.00000000 </v>
  </varray>
  <varray name="stress" >
   <v>       3.97101292       0.00000000       0.00000000 </v>
   <v>       0.00000000       4.06894505       0.00000000 </v>
   <v>       0.00000000       0.00000000      -0.62498054 </v>
  </varray>
  <energy>
   <i name="e_fr_energy">    -66.26209702 </i>
   <i name="e_wo_entrp">    -66.26090515 </i>
   <i name="e_0_energy">     -0.00238374 </i>
  </energy>
  <time name="totalsc">   41.22   41.37</time>
 </calculation>
 <calculation>
  <scstep>
   <time name="dav">   13.12   13.14</time>
   <time name="total">   14.52   14.54</time>
   <energy>
    <i name="alphaZ">     10.93933817 </i>
    <i name="ewald">   4061.55359562 </i>
    <i name="hartreedc">  -4942.34817387 </i>
    <i name="XCdc">     96.15888421 </i>
    <i name="pawpsdc">   2917.75170088 </i>
    <i name="pawaedc">  -2920.30542566 </i>
    <i name="eentropy">     -0.00238368 </i>
    <i name="bandstr">   -315.21353228 </i>
    <i name="atom">   1025.20389953 </i>
    <i name="e_fr_energy">    -66.26209708 </i>
    <i name="e_wo_entrp">    -66.25971340 </i>
    <i name="e_0_energy">    -66.26090524 </i>
   </energy>
  </scstep>
  <scstep>
   <time name="dav">   13.08   13.13</time>
   <time name="total">   13.22   13.26</time>
   <energy>
    <i name="alphaZ">     10.93933817 </i>
    <i name="ewald">   4061.55359562 </i>
    <i name="hartreedc">  -4942.34792920 </i>
    <i name="XCdc">     96.15888280 </i>
    <i name="pawpsdc">   2917.75179784 </i>
    <i name="pawaedc">  -2920.30552273 </i>
    <i name="eentropy">     -0.00238367 </i>
    <i name="bandstr">   -315.21377545 </i>
    <i name="atom">   1025.20389953 </i>
    <i name="e_fr_energy">    -66.26209710 </i>
    <i name="e_wo_entrp">    -66.25971343 </i>
    <i name="e_0_energy">    -66.26090526 </i>
   </energy>
  </scstep>
  <structure>
   <crystal>
    <varray name="basis" >
     <v>       5.17400000       0.00000000       0.00000000 </v>
     <v>       2.58700000       4.48100000       0.00000000 </v>
     <v>       0.00000000       0.00000000      20.00000000 </v>
    </varray>
    <i name="volume">    463.69388000 </i>
    <varray name="rec_basis" >
     <v>       0.19327406      -0.11158224       0.00000000 </v>
     <v>       0.00000000       0.22316447       0.00000000 </v>
     <v>       0.00000000       0.00000000       0.05000000 </v>
    </varray>
   </crystal>
   <varray name="positions" >
    <v>       0.17462149       0.17452974       0.00000000 </v>
    <v>       0.50787695       0.50801880      -0.00000000 </v>
    <v>      -0.00059119      -0.00036394       0.00000000 </v>
    <v>       0.52472784      -0.00036394       0.00000000 </v>
    <v>       0.68308454       0.15760363       0.00000000 </v>
    <v>       0.99941390       0.52494490       0.00000000 </v>
    <v>       0.15777060       0.68291248       0.00000000 </v>
    <v>       0.68308963       0.68291248      -0.00000000 </v>
   </varray>
  </structure>
  <varray name="forces" >
   <v>       0.00000000      -0.00455382       0.00000000 </v>
   <v>      -0.00000000       0.00455382       0.00000000 </v>
   <v>      -0.00145782       0.00021355       0.00000000 </v>
   <v>       0.00145782       0.00021355      -0.00000000 </v>
   <v>       0.00000000       0.00262539      -0.00000000 </v>
   <v>       0.00000000      -0.00262539       0.00000000 </v>
   <v>      -0.00145782      -0.00021355       0.00000000 </v>
   <v>       0.00145782      -0.00021355      -0.00000000 </v>
  </varray>
  <varray name="stress" >
   <v>       3.97091259       0.00000000       0.00000000 </v>
   <v>       0.00000000       4.06908207       0.00000000 </v>
   <v>       0.00000000       0.00000000      -0.62469560 </v>
  </varray>
  <energy>
   <i name="e_fr_energy">    -66.26209710 </i>
   <i name="e_wo_entrp">    -66.26090526 </i>
   <i name="e_0_energy">     -0.00238367 </i>
  </energy>
  <time name="totalsc">   42.49   42.63</time>
 </calculation>
 <calculation>
  <scstep>
   <time name="dav">   12.16   12.18</time>
   <time name="total">   13.56   13.58</time>
   <energy>
    <i name="alphaZ">     10.93933817 </i>
    <i name="ewald">   4061.55361408 </i>
    <i name="hartreedc">  -4942.34752587 </i>
    <i name="XCdc">     96.15888067 </i>
    <i name="pawpsdc">   2917.75159380 </i>
    <i name="pawaedc">  -2920.30531888 </i>
    <i name="eentropy">     -0.00238364 </i>
    <i name="bandstr">   -315.21419497 </i>
    <i name="atom">   1025.20389953 </i>
    <i name="e_fr_energy">    -66.26209712 </i>
    <i name="e_wo_entrp">    -66.25971348 </i>
    <i name="e_0_energy">    -66.26090530 </i>
   </energy>
  </scstep>
  <scstep>
   <time name="dav">   12.84   12.85</time>
   <time name="total">   12.98   12.99</time>
   <energy>
    <i name="alphaZ">     10.93933817 </i>
    <i name="ewald">   4061.55361408 </i>
    <i name="hartreedc">  -4942.34735293 </i>
    <i name="XCdc">     96.15887971 </i>
    <i name="pawpsdc">   2917.75158978 </i>
    <i name="pawaedc">  -2920.30531493 </i>
    <i name="eentropy">     -0.00238364 </i>
    <i name="bandstr">   -315.21436689 </i>
    <i name="atom">   1025.20389953 </i>
    <i name="e_fr_energy">    -66.26209713 </i>
    <i name="e_wo_entrp">    -66.25971349 </i>
    <i name="e_0_energy">    -66.26090531 </i>
   </energy>
  </scstep>
  <structure>
   <crystal>
    <varray name="basis" >
     <v>       5.17400000       0.00000000       0.00000000 </v>
     <v>       2.58700000       4.48100000       0.00000000 </v>
     <v>       0.00000000       0.00000000      20.00000000 </v>
    </varray>
    <i name="volume">    463.69388000 </i>
    <varray name="rec_basis" >
     <v>       0.19327406      -0.11158224       0.00000000 </v>
     <v>       0.00000000       0.22316447       0.00000000 </v>
     <v>       0.00000000       0.00000000       0.05000000 </v>
    </varray>
   </crystal>
   <varray name="positions" >
    <v>       0.17462148       0.17452974       0.00000000 </v>
    <v>       0.50787696       0.50801880      -0.00000000 </v>
    <v>      -0.00059117      -0.00036399       0.00000000 </v>
    <v>       0.52472787      -0.00036399       0.00000000 </v>
    <v>       0.68308453       0.15760365       0.00000000 </v>
    <v>       0.99941391       0.52494489       0.00000000 </v>
    <v>       0.15777057       0.68291253       0.00000000 </v>
    <v>       0.68308961       0.68291253      -0.00000000 </v>
   </varray>
  </structure>
  <varray name="forces" >
   <v>       0.00000000      -0.00455790       0.00000000 </v>
   <v>      -0.00000000       0.00455790       0.00000000 </v>
   <v>      -0.00145948       0.00023260      -0.00000000 </v>
   <v>       0.00145948       0.00023260       0.00000000 </v>
   <v>       0.00000000       0.00261807       0.00000000 </v>
   <v>       0.00000000      -0.00261807       0.00000000 </v>
   <v>      -0.00145948      -0.00023260       0.00000000 </v>
   <v>       0.00145948      -0.00023260       0.00000000 </v>
  </varray>
  <varray name="stress" >
   <v>       3.97084887      -0.00000000       0.00000000 </v>
   <v>       0.00000000       4.06916007       0.00000000 </v>
   <v>       0.00000000       0.00000000      -0.62455749 </v>
  </varray>
  <energy>
   <i name="e_fr_energy">    -66.26209713 </i>
   <i name="e_wo_entrp">    -66.26090531 </i>
   <i name="e_0_energy">     -0.00238364 </i>
  </energy>
  <time name="totalsc">   41.74   52.75</time>
  <eigenvalues>
   <array>
    <dimension dim="1">band</dimension>
    <dimension dim="2">kpoint</dimension>
    <dimension dim="3">spin</dimension>
    <field>eigene</field>
    <field>occ</field>
    <set>
     <set comment="spin 1">
      <set comment="kpoint 1">
       <r>  -19.8691    1.0000 </r>
       <r>  -17.5756    1.0000 </r>
       <r>  -16.7170    1.0000 </r>
       <r>  -14.4338    1.0000 </r>
       <r>  -12.8033    1.0000 </r>
       <r>  -11.2698    1.0000 </r>
       <r>   -9.7798    1.0000 </r>
       <r>   -9.7142    1.0000 </r>
       <r>   -8.4340    1.0000 </r>
       <r>   -8.2345    1.0000 </r>
       <r>   -6.6422    1.0000 </r>
       <r>   -6.3163    1.0000 </r>
       <r>   -6.0911    1.0000 </r>
       <r>   -5.0596    1.0000 </r>
       <r>   -4.9927    1.0000 </r>
       <r>   -3.3883    0.0007 </r>
       <r>    0.1215    0.0000 </r>
       <r>    0.7989    0.0000 </r>
       <r>    1.2424    0.0000 </r>
       <r>    2.0039    0.0000 </r>
       <r>    2.3246    0.0000 </r>
       <r>    2.6917    0.0000 </r>
       <r>    3.3537    0.0000 </r>
       <r>    3.6698    0.0000 </r>
      </set>
      <set comment="kpoint 2">
       <r>  -19.8571    1.0000 </r>
       <r>  -17.5964    1.0000 </r>
       <r>  -16.7382    1.0000 </r>
       <r>  -14.4192    1.0000 </r>
       <r>  -12.7950    1.0000 </r>
       <r>  -11.2048    1.0000 </r>
       <r>   -9.8238    1.0000 </r>
       <r>   -9.6594    1.0000 </r>
       <r>   -8.4111    1.0000 </r>
       <r>   -8.2560    1.0000 </r>
       <r>   -6.6532    1.0000 </r>
       <r>   -6.3464    1.0000 </r>
       <r>   -6.1432    1.0000 </r>
       <r>   -5.0932    1.0000 </r>
       <r>   -5.0275    1.0000 </r>
       <r>   -3.3685    0.0004 </r>
       <r>    0.0562    0.0000 </r>
       <r>    0.9076    0.0000 </r>
       <r>    1.2747    0.0000 </r>
       <r>    2.0404    0.0000 </r>
       <r>    2.3575    0.0000 </r>
       <r>    2.7511    0.0000 </r>
       <r>    3.3875    0.0000 </r>
       <r>    3.6243    0.0000 </r>
      </set>
      <set comment="kpoint 3">
       <r>  -19.8407    1.0000 </r>
       <r>  -17.6141    1.0000 </r>
       <r>  -16.7879    1.0000 </r>
       <r>  -14.3635    1.0000 </r>
       <r>  -12.8214    1.0000 </r>
       <r>  -11.0992    1.0000 </r>
       <r>   -9.8964    1.0000 </r>
       <r>   -9.5894    1.0000 </r>
       <r>   -8.3798    1.0000 </r>
       <r>   -8.2478    1.0000 </r>
       <r>   -6.7006    1.0000 </r>
       <r>   -6.3708    1.0000 </r>
       <r>   -6.1941    1.0000 </r>
       <r>   -5.1800    1.0000 </r>
       <r>   -5.0913    1.0000 </r>
       <r>   -3.2958    0.0001 </r>
       <r>   -0.0982    0.0000 </r>
       <r>    1.1246    0.0000 </r>
       <r>    1.3190    0.0000 </r>
       <r>    2.0923    0.0000 </r>
       <r>    2.4025    0.0000 </r>
       <r>    2.8077    0.0000 </r>
       <r>    3.4323    0.0000 </r>
       <r>    3.5906    0.0000 </r>
      </set>
      <set comment="kpoint 4">
       <r>  -19.8203    1.0000 </r>
       <r>  -17.6287    1.0000 </r>
       <r>  -16.8605    1.0000 </r>
       <r>  -14.2730    1.0000 </r>
       <r>  -12.8728    1.0000 </r>
       <r>  -10.9648    1.0000 </r>
       <r>   -9.9891    1.0000 </r>
       <r>   -9.5064    1.0000 </r>
       <r>   -8.3404    1.0000 </r>
       <r>   -8.2155    1.0000 </r>
       <r>   -6.7811    1.0000 </r>
       <r>   -6.3897    1.0000 </r>
       <r>   -6.2443    1.0000 </r>
       <r>   -5.3056    1.0000 </r>
       <r>   -5.1819    1.0000 </r>
       <r>   -3.1840    0.0000 </r>
       <r>   -0.2765    0.0000 </r>
       <r>    1.3753    0.0000 </r>
       <r>    1.3812    0.0000 </r>
       <r>    2.1618    0.0000 </r>
       <r>    2.4595    0.0000 </r>
       <r>    2.8607    0.0000 </r>
       <r>    3.4879    0.0000 </r>
       <r>    3.5687    0.0000 </r>
      </set>
      <set comment="kpoint 5">
       <r>  -19.7964    1.0000 </r>
       <r>  -17.6408    1.0000 </r>
       <r>  -16.9480    1.0000 </r>
       <r>  -14.1567    1.0000 </r>
       <r>  -12.9381    1.0000 </r>
       <r>  -10.8177    1.0000 </r>
       <r>  -10.0888    1.0000 </r>
       <r>   -9.4111    1.0000 </r>
       <r>   -8.2934    1.0000 </r>
       <r>   -8.1680    1.0000 </r>
       <r>   -6.8869    1.0000 </r>
       <r>   -6.4043    1.0000 </r>
       <r>   -6.2963    1.0000 </r>
       <r>   -5.4537    1.0000 </r>
       <r>   -5.2954    1.0000 </r>
       <r>   -3.0494    0.0000 </r>
       <r>   -0.4543    0.0000 </r>
       <r>    1.4434    0.0000 </r>
       <r>    1.6476    0.0000 </r>
       <r>    2.2548    0.0000 </r>
       <r>    2.5287    0.0000 </r>
       <r>    2.9087    0.0000 </r>
       <r>    3.5541    0.0000 </r>
       <r>    3.5586    0.0000 </r>
      </set>
      <set comment="kpoint 6">
       <r>  -19.7697    1.0000 </r>
       <r>  -17.6515    1.0000 </r>
       <r>  -17.0417    1.0000 </r>
       <r>  -14.0253    1.0000 </r>
       <r>  -13.0061    1.0000 </r>
       <r>  -10.6855    1.0000 </r>
       <r>  -10.1706    1.0000 </r>
       <r>   -9.3036    1.0000 </r>
       <r>   -8.2394    1.0000 </r>
       <r>   -8.1171    1.0000 </r>
       <r>   -7.0076    1.0000 </r>
       <r>   -6.4169    1.0000 </r>
       <r>   -6.3532    1.0000 </r>
       <r>   -5.6099    1.0000 </r>
       <r>   -5.4256    1.0000 </r>
       <r>   -2.9064    0.0000 </r>
       <r>   -0.6208    0.0000 </r>
       <r>    1.5234    0.0000 </r>
       <r>    1.9009    0.0000 </r>
       <r>    2.3843    0.0000 </r>
       <r>    2.6100    0.0000 </r>
       <r>    2.9505    0.0000 </r>
       <r>    3.5602    0.0000 </r>
       <r>    3.6313    0.0000 </r>
      </set>
      <set comment="kpoint 7">
       <r>  -19.7412    1.0000 </r>
       <r>  -17.6632    1.0000 </r>
       <r>  -17.1331    1.0000 </r>
       <r>  -13.8930    1.0000 </r>
       <r>  -13.0647    1.0000 </r>
       <r>  -10.6242    1.0000 </r>
       <r>  -10.1794    1.0000 </r>
       <r>   -9.1846    1.0000 </r>
       <r>   -8.1792    1.0000 </r>
       <r>   -8.0776    1.0000 </r>
       <r>   -7.1294    1.0000 </r>
       <r>   -6.4322    1.0000 </r>
       <r>   -6.4179    1.0000 </r>
       <r>   -5.7605    1.0000 </r>
       <r>   -5.5644    1.0000 </r>
       <r>   -2.7678    0.0000 </r>
       <r>   -0.7684    0.0000 </r>
       <r>    1.6152    0.0000 </r>
       <r>    2.1151    0.0000 </r>
       <r>    2.5703    0.0000 </r>
       <r>    2.7034    0.0000 </r>
       <r>    2.9842    0.0000 </r>
       <r>    3.5733    0.0000 </r>
       <r>    3.7198    0.0000 </r>
      </set>
      <set comment="kpoint 8">
       <r>  -19.7121    1.0000 </r>
       <r>  -17.6793    1.0000 </r>
       <r>  -17.2132    1.0000 </r>
       <r>  -13.7797    1.0000 </r>
       <r>  -13.0968    1.0000 </r>
       <r>  -10.6665    1.0000 </r>
       <r>  -10.0829    1.0000 </r>
[...]
       <r>  -16.9455    1.0000 </r>
       <r>  -14.0723    1.0000 </r>
       <r>  -13.1256    1.0000 </r>
       <r>  -10.9761    1.0000 </r>
       <r>   -9.9755    1.0000 </r>
       <r>   -9.6124    1.0000 </r>
       <r>   -8.3775    1.0000 </r>
       <r>   -7.9720    1.0000 </r>
       <r>   -6.9479    1.0000 </r>
       <r>   -6.2359    1.0000 </r>
       <r>   -6.0646    1.0000 </r>
       <r>   -5.4740    1.0000 </r>
       <r>   -5.2299    1.0000 </r>
       <r>   -2.9890    0.0000 </r>
       <r>   -0.5513    0.0000 </r>
       <r>    1.3204    0.0000 </r>
       <r>    1.6357    0.0000 </r>
       <r>    2.1431    0.0000 </r>
       <r>    2.4033    0.0000 </r>
       <r>    2.5755    0.0000 </r>
       <r>    3.4236    0.0000 </r>
       <r>    3.7923    0.0000 </r>
      </set>
      <set comment="kpoint 94">
       <r>  -19.8580    1.0000 </r>
       <r>  -17.5469    1.0000 </r>
       <r>  -16.8337    1.0000 </r>
       <r>  -14.2502    1.0000 </r>
       <r>  -12.9833    1.0000 </r>
       <r>  -11.1289    1.0000 </r>
       <r>   -9.8774    1.0000 </r>
       <r>   -9.6799    1.0000 </r>
       <r>   -8.4149    1.0000 </r>
       <r>   -8.0855    1.0000 </r>
       <r>   -6.7959    1.0000 </r>
       <r>   -6.2639    1.0000 </r>
       <r>   -6.0521    1.0000 </r>
       <r>   -5.2791    1.0000 </r>
       <r>   -5.1023    1.0000 </r>
       <r>   -3.1666    0.0000 </r>
       <r>   -0.3103    0.0000 </r>
       <r>    1.2684    0.0000 </r>
       <r>    1.2958    0.0000 </r>
       <r>    2.0453    0.0000 </r>
       <r>    2.3507    0.0000 </r>
       <r>    2.6196    0.0000 </r>
       <r>    3.3747    0.0000 </r>
       <r>    3.7392    0.0000 </r>
      </set>
      <set comment="kpoint 95">
       <r>  -19.8687    1.0000 </r>
       <r>  -17.5623    1.0000 </r>
       <r>  -16.7477    1.0000 </r>
       <r>  -14.3826    1.0000 </r>
       <r>  -12.8609    1.0000 </r>
       <r>  -11.2399    1.0000 </r>
       <r>   -9.8045    1.0000 </r>
       <r>   -9.7124    1.0000 </r>
       <r>   -8.4339    1.0000 </r>
       <r>   -8.1851    1.0000 </r>
       <r>   -6.6846    1.0000 </r>
       <r>   -6.2943    1.0000 </r>
       <r>   -6.0662    1.0000 </r>
       <r>   -5.1215    1.0000 </r>
       <r>   -5.0174    1.0000 </r>
       <r>   -3.3212    0.0001 </r>
       <r>   -0.0406    0.0000 </r>
       <r>    0.9681    0.0000 </r>
       <r>    1.2424    0.0000 </r>
       <r>    2.0061    0.0000 </r>
       <r>    2.3245    0.0000 </r>
       <r>    2.6584    0.0000 </r>
       <r>    3.3517    0.0000 </r>
       <r>    3.7070    0.0000 </r>
      </set>
      <set comment="kpoint 96">
       <r>  -19.8691    1.0000 </r>
       <r>  -17.5756    1.0000 </r>
       <r>  -16.7170    1.0000 </r>
       <r>  -14.4338    1.0000 </r>
       <r>  -12.8033    1.0000 </r>
       <r>  -11.2698    1.0000 </r>
       <r>   -9.7798    1.0000 </r>
       <r>   -9.7142    1.0000 </r>
       <r>   -8.4340    1.0000 </r>
       <r>   -8.2345    1.0000 </r>
       <r>   -6.6422    1.0000 </r>
       <r>   -6.3163    1.0000 </r>
       <r>   -6.0911    1.0000 </r>
       <r>   -5.0596    1.0000 </r>
       <r>   -4.9927    1.0000 </r>
       <r>   -3.3883    0.0007 </r>
       <r>    0.1215    0.0000 </r>
       <r>    0.7989    0.0000 </r>
       <r>    1.2424    0.0000 </r>
       <r>    2.0039    0.0000 </r>
       <r>    2.3246    0.0000 </r>
       <r>    2.6917    0.0000 </r>
       <r>    3.3537    0.0000 </r>
       <r>    3.6698    0.0000 </r>
      </set>
     </set>
    </set>
   </array>
  </eigenvalues>
  <separator name="orbital magnetization" >
   <v name="MAGDIPOLOUT">      0.00000000      0.00000000      0.00000000</v>
  </separator>
  <dos>
   <i name="efermi">     -3.84107222 </i>
   <total>
    <array>
     <dimension dim="1">gridpoints</dimension>
     <dimension dim="2">spin</dimension>
     <field>energy</field>
     <field>total</field>
     <field>integrated</field>
     <set>
      <set comment="spin 1">
       <r>   -22.2455     0.0000     0.0000 </r>
       <r>   -22.1518     0.0000     0.0000 </r>
       <r>   -22.0580     0.0000     0.0000 </r>
       <r>   -21.9642     0.0000     0.0000 </r>
       <r>   -21.8705     0.0000     0.0000 </r>
       <r>   -21.7767     0.0000     0.0000 </r>
       <r>   -21.6829     0.0000     0.0000 </r>
       <r>   -21.5892     0.0000     0.0000 </r>
       <r>   -21.4954     0.0000     0.0000 </r>
       <r>   -21.4016     0.0000     0.0000 </r>
       <r>   -21.3079     0.0000     0.0000 </r>
       <r>   -21.2141     0.0000     0.0000 </r>
       <r>   -21.1203     0.0000     0.0000 </r>
       <r>   -21.0266     0.0000     0.0000 </r>
       <r>   -20.9328     0.0000     0.0000 </r>
       <r>   -20.8390     0.0000     0.0000 </r>
       <r>   -20.7453     0.0004     0.0000 </r>
       <r>   -20.6515     0.0041     0.0004 </r>
       <r>   -20.5577     0.0287     0.0031 </r>
       <r>   -20.4640     0.1331     0.0156 </r>
       <r>   -20.3702     0.4217     0.0551 </r>
       <r>   -20.2764     0.9383     0.1431 </r>
       <r>   -20.1827     1.5434     0.2878 </r>
       <r>   -20.0889     2.0391     0.4790 </r>
       <r>   -19.9951     2.4076     0.7048 </r>
       <r>   -19.9014     2.7576     0.9634 </r>
       <r>   -19.8076     3.0549     1.2498 </r>
       <r>   -19.7138     3.0327     1.5342 </r>
       <r>   -19.6201     2.4670     1.7655 </r>
       <r>   -19.5263     1.5324     1.9092 </r>
       <r>   -19.4325     0.6921     1.9741 </r>
       <r>   -19.3387     0.2201     1.9947 </r>
       <r>   -19.2450     0.0482     1.9993 </r>
       <r>   -19.1512     0.0072     1.9999 </r>
       <r>   -19.0574     0.0007     2.0000 </r>
       <r>   -18.9637     0.0000     2.0000 </r>
       <r>   -18.8699     0.0000     2.0000 </r>
       <r>   -18.7761     0.0000     2.0000 </r>
       <r>   -18.6824     0.0000     2.0000 </r>
       <r>   -18.5886     0.0000     2.0000 </r>
       <r>   -18.4948     0.0001     2.0000 </r>
       <r>   -18.4011     0.0015     2.0002 </r>
       <r>   -18.3073     0.0122     2.0013 </r>
       <r>   -18.2135     0.0657     2.0075 </r>
       <r>   -18.1198     0.2412     2.0301 </r>
       <r>   -18.0260     0.6201     2.0882 </r>
       <r>   -17.9322     1.1597     2.1970 </r>
       <r>   -17.8385     1.6694     2.3535 </r>
       <r>   -17.7447     1.9888     2.5400 </r>
       <r>   -17.6509     2.0838     2.7354 </r>
       <r>   -17.5572     1.9640     2.9195 </r>
       <r>   -17.4634     1.7082     3.0797 </r>
       <r>   -17.3696     1.5208     3.2223 </r>
       <r>   -17.2759     1.5534     3.3680 </r>
       <r>   -17.1821     1.7512     3.5322 </r>
       <r>   -17.0883     1.9834     3.7181 </r>
       <r>   -16.9946     2.2430     3.9285 </r>
       <r>   -16.9008     2.6498     4.1769 </r>
       <r>   -16.8070     3.1586     4.4731 </r>
       <r>   -16.7133     3.4189     4.7937 </r>
       <r>   -16.6195     3.2245     5.0960 </r>
       <r>   -16.5257     2.8147     5.3600 </r>
       <r>   -16.4320     2.4417     5.5889 </r>
       <r>   -16.3382     2.0060     5.7770 </r>
       <r>   -16.2444     1.3665     5.9052 </r>
       <r>   -16.1507     0.6934     5.9702 </r>
       <r>   -16.0569     0.2471     5.9933 </r>
       <r>   -15.9631     0.0600     5.9990 </r>
       <r>   -15.8694     0.0098     5.9999 </r>
       <r>   -15.7756     0.0011     6.0000 </r>
       <r>   -15.6818     0.0001     6.0000 </r>
       <r>   -15.5881     0.0000     6.0000 </r>
       <r>   -15.4943     0.0000     6.0000 </r>
       <r>   -15.4005     0.0000     6.0000 </r>
       <r>   -15.3068     0.0000     6.0000 </r>
       <r>   -15.2130     0.0000     6.0000 </r>
       <r>   -15.1192     0.0000     6.0000 </r>
       <r>   -15.0255     0.0007     6.0001 </r>
       <r>   -14.9317     0.0064     6.0007 </r>
       <r>   -14.8379     0.0415     6.0046 </r>
       <r>   -14.7442     0.1805     6.0215 </r>
       <r>   -14.6504     0.5384     6.0720 </r>
       <r>   -14.5566     1.1290     6.1778 </r>
       <r>   -14.4629     1.7411     6.3411 </r>
       <r>   -14.3691     2.1478     6.5425 </r>
       <r>   -14.2753     2.4206     6.7695 </r>
       <r>   -14.1816     2.7803     7.0302 </r>
       <r>   -14.0878     3.1763     7.3280 </r>
       <r>   -13.9940     3.2674     7.6344 </r>
       <r>   -13.9003     2.8616     7.9027 </r>
       <r>   -13.8065     2.1745     8.1066 </r>
       <r>   -13.7127     1.5629     8.2531 </r>
       <r>   -13.6190     1.2023     8.3659 </r>
       <r>   -13.5252     1.0804     8.4672 </r>
       <r>   -13.4314     1.0859     8.5690 </r>
       <r>   -13.3377     1.0988     8.6720 </r>
       <r>   -13.2439     1.1179     8.7768 </r>
       <r>   -13.1501     1.2472     8.8938 </r>
       <r>   -13.0563     1.5381     9.0380 </r>
       <r>   -12.9626     1.8976     9.2160 </r>
       <r>   -12.8688     2.1375     9.4164 </r>
       <r>   -12.7750     2.1092     9.6142 </r>
       <r>   -12.6813     1.8283     9.7856 </r>
       <r>   -12.5875     1.4751     9.9239 </r>
       <r>   -12.4937     1.2393    10.0401 </r>
       <r>   -12.4000     1.1677    10.1496 </r>
       <r>   -12.3062     1.1599    10.2584 </r>
       <r>   -12.2124     1.0910    10.3607 </r>
       <r>   -12.1187     0.9385    10.4487 </r>
       <r>   -12.0249     0.7775    10.5216 </r>
       <r>   -11.9311     0.6707    10.5845 </r>
       <r>   -11.8374     0.6419    10.6446 </r>
       <r>   -11.7436     0.7163    10.7118 </r>
       <r>   -11.6498     0.8867    10.7950 </r>
       <r>   -11.5561     1.0601    10.8944 </r>
       <r>   -11.4623     1.1416    11.0014 </r>
       <r>   -11.3685     1.1552    11.1097 </r>
       <r>   -11.2748     1.1788    11.2203 </r>
       <r>   -11.1810     1.2251    11.3351 </r>
       <r>   -11.0872     1.2814    11.4553 </r>
       <r>   -10.9935     1.3581    11.5826 </r>
       <r>   -10.8997     1.4497    11.7186 </r>
       <r>   -10.8059     1.5472    11.8636 </r>
       <r>   -10.7122     1.6619    12.0195 </r>
       <r>   -10.6184     1.7542    12.1839 </r>
       <r>   -10.5246     1.7544    12.3484 </r>
       <r>   -10.4309     1.7237    12.5101 </r>
       <r>   -10.3371     1.8165    12.6804 </r>
       <r>   -10.2433     2.0509    12.8727 </r>
       <r>   -10.1496     2.2644    13.0850 </r>
       <r>   -10.0558     2.2971    13.3004 </r>
       <r>    -9.9620     2.1751    13.5044 </r>
       <r>    -9.8683     2.0670    13.6982 </r>
       <r>    -9.7745     2.0794    13.8932 </r>
       <r>    -9.6807     2.1899    14.0985 </r>
       <r>    -9.5870     2.3290    14.3169 </r>
       <r>    -9.4932     2.4400    14.5457 </r>
       <r>    -9.3994     2.4798    14.7782 </r>
       <r>    -9.3057     2.4202    15.0052 </r>
       <r>    -9.2119     2.3207    15.2228 </r>
       <r>    -9.1181     2.3604    15.4441 </r>
       <r>    -9.0244     2.6194    15.6897 </r>
       <r>    -8.9306     2.8900    15.9607 </r>
       <r>    -8.8368     2.8935    16.2320 </r>
       <r>    -8.7431     2.5908    16.4749 </r>
       <r>    -8.6493     2.2262    16.6837 </r>
       <r>    -8.5555     2.1140    16.8819 </r>
       <r>    -8.4618     2.3551    17.1027 </r>
       <r>    -8.3680     2.8055    17.3658 </r>
       <r>    -8.2742     3.2784    17.6732 </r>
       <r>    -8.1805     3.6249    18.0131 </r>
       <r>    -8.0867     3.7082    18.3608 </r>
       <r>    -7.9929     3.4308    18.6825 </r>
       <r>    -7.8992     2.7950    18.9446 </r>
       <r>    -7.8054     2.0230    19.1343 </r>
       <r>    -7.7116     1.4847    19.2735 </r>
       <r>    -7.6179     1.3494    19.4000 </r>
       <r>    -7.5241     1.4519    19.5361 </r>
       <r>    -7.4303     1.5287    19.6795 </r>
       <r>    -7.3366     1.4823    19.8185 </r>
       <r>    -7.2428     1.4303    19.9526 </r>
       <r>    -7.1490     1.5739    20.1002 </r>
       <r>    -7.0553     2.0642    20.2937 </r>
       <r>    -6.9615     2.9545    20.5708 </r>
       <r>    -6.8677     4.1752    20.9622 </r>
       <r>    -6.7739     5.4093    21.4695 </r>
       <r>    -6.6802     6.0601    22.0377 </r>
       <r>    -6.5864     5.7376    22.5757 </r>
       <r>    -6.4926     4.7429    23.0204 </r>
       <r>    -6.3989     3.6945    23.3668 </r>
       <r>    -6.3051     2.9230    23.6409 </r>
       <r>    -6.2113     2.4518    23.8708 </r>
       <r>    -6.1176     2.2236    24.0793 </r>
       <r>    -6.0238     2.1669    24.2825 </r>
       <r>    -5.9300     2.1771    24.4866 </r>
       <r>    -5.8363     2.1944    24.6924 </r>
       <r>    -5.7425     2.2652    24.9048 </r>
       <r>    -5.6487     2.4213    25.1319 </r>
       <r>    -5.5550     2.6182    25.3774 </r>
       <r>    -5.4612     2.8818    25.6476 </r>
       <r>    -5.3674     3.3507    25.9618 </r>
       <r>    -5.2737     4.0877    26.3450 </r>
       <r>    -5.1799     4.9334    26.8076 </r>
       <r>    -5.0861     5.5384    27.3270 </r>
       <r>    -4.9924     5.5753    27.8497 </r>
       <r>    -4.8986     4.9788    28.3166 </r>
       <r>    -4.8048     3.9402    28.6861 </r>
       <r>    -4.7111     2.8086    28.9494 </r>
       <r>    -4.6173     1.9467    29.1319 </r>
       <r>    -4.5235     1.4923    29.2719 </r>
       <r>    -4.4298     1.3706    29.4004 </r>
       <r>    -4.3360     1.4639    29.5377 </r>
       <r>    -4.2422     1.5895    29.6867 </r>
       <r>    -4.1485     1.4865    29.8261 </r>
       <r>    -4.0547     1.0634    29.9258 </r>
       <r>    -3.9609     0.5467    29.9771 </r>
       <r>    -3.8672     0.2103    29.9968 </r>
       <r>    -3.7734     0.1343    30.0094 </r>
       <r>    -3.6796     0.3073    30.0382 </r>
       <r>    -3.5859     0.7114    30.1049 </r>
       <r>    -3.4921     1.2129    30.2186 </r>
       <r>    -3.3983     1.5754    30.3664 </r>
       <r>    -3.3046     1.7118    30.5269 </r>
       <r>    -3.2108     1.7808    30.6938 </r>
       <r>    -3.1170     1.9283    30.8747 </r>
       <r>    -3.0233     2.0464    31.0665 </r>
       <r>    -2.9295     1.9433    31.2488 </r>
       <r>    -2.8357     1.6483    31.4033 </r>
       <r>    -2.7420     1.3519    31.5301 </r>
       <r>    -2.6482     1.1713    31.6399 </r>
       <r>    -2.5544     1.0896    31.7421 </r>
       <r>    -2.4607     1.0051    31.8363 </r>
       <r>    -2.3669     0.8194    31.9132 </r>
       <r>    -2.2731     0.5376    31.9636 </r>
       <r>    -2.1794     0.2659    31.9885 </r>
       <r>    -2.0856     0.0947    31.9974 </r>
       <r>    -1.9918     0.0235    31.9996 </r>
       <r>    -1.8981     0.0040    32.0000 </r>
       <r>    -1.8043     0.0004    32.0000 </r>
       <r>    -1.7105     0.0000    32.0000 </r>
       <r>    -1.6168     0.0000    32.0000 </r>
       <r>    -1.5230     0.0001    32.0000 </r>
       <r>    -1.4292     0.0011    32.0001 </r>
       <r>    -1.3355     0.0077    32.0008 </r>
       <r>    -1.2417     0.0359    32.0042 </r>
       <r>    -1.1479     0.1138    32.0149 </r>
       <r>    -1.0542     0.2527    32.0386 </r>
       <r>    -0.9604     0.4190    32.0779 </r>
       <r>    -0.8666     0.5918    32.1334 </r>
       <r>    -0.7729     0.8604    32.2140 </r>
       <r>    -0.6791     1.3772    32.3432 </r>
       <r>    -0.5853     2.1148    32.5415 </r>
       <r>    -0.4915     2.7103    32.7956 </r>
       <r>    -0.3978     2.7833    33.0566 </r>
       <r>    -0.3040     2.4070    33.2823 </r>
       <r>    -0.2102     2.0005    33.4699 </r>
       <r>    -0.1165     1.8619    33.6444 </r>
       <r>    -0.0227     1.9788    33.8300 </r>
       <r>     0.0711     2.1495    34.0315 </r>
       <r>     0.1648     2.2340    34.2410 </r>
       <r>     0.2586     2.2816    34.4550 </r>
       <r>     0.3524     2.3656    34.6768 </r>
       <r>     0.4461     2.4074    34.9025 </r>
       <r>     0.5399     2.3015    35.1183 </r>
       <r>     0.6337     2.1276    35.3178 </r>
       <r>     0.7274     2.0689    35.5118 </r>
       <r>     0.8212     2.1899    35.7172 </r>
       <r>     0.9150     2.4178    35.9439 </r>
       <r>     1.0087     2.6898    36.1961 </r>
       <r>     1.1025     3.0296    36.4802 </r>
       <r>     1.1963     3.4484    36.8035 </r>
       <r>     1.2900     3.8133    37.1611 </r>
       <r>     1.3838     3.9554    37.5320 </r>
       <r>     1.4776     3.8961    37.8973 </r>
       <r>     1.5713     3.7839    38.2521 </r>
       <r>     1.6651     3.7075    38.5997 </r>
       <r>     1.7589     3.6950    38.9462 </r>
       <r>     1.8526     3.7500    39.2978 </r>
       <r>     1.9464     3.8189    39.6559 </r>
       <r>     2.0402     3.8017    40.0124 </r>
       <r>     2.1339     3.6738    40.3569 </r>
       <r>     2.2277     3.5658    40.6913 </r>
       <r>     2.3215     3.6482    41.0333 </r>
       <r>     2.4152     3.9576    41.4044 </r>
       <r>     2.5090     4.3456    41.8119 </r>
       <r>     2.6028     4.5827    42.2416 </r>
       <r>     2.6965     4.6144    42.6743 </r>
       <r>     2.7903     4.6609    43.1113 </r>
       <r>     2.8841     4.8722    43.5682 </r>
       <r>     2.9778     5.0574    44.0424 </r>
       <r>     3.0716     4.9882    44.5101 </r>
       <r>     3.1654     4.7589    44.9564 </r>
       <r>     3.2591     4.6316    45.3907 </r>
       <r>     3.3529     4.6862    45.8301 </r>
       <r>     3.4467     4.7873    46.2790 </r>
       <r>     3.5404     4.7626    46.7255 </r>
       <r>     3.6342     4.4547    47.1433 </r>
       <r>     3.7280     3.7444    47.4944 </r>
       <r>     3.8217     2.6971    47.7473 </r>
       <r>     3.9155     1.5970    47.8970 </r>
       <r>     4.0093     0.7478    47.9671 </r>
       <r>     4.1030     0.2664    47.9921 </r>
       <r>     4.1968     0.0696    47.9986 </r>
       <r>     4.2906     0.0129    47.9998 </r>
       <r>     4.3843     0.0017    48.0000 </r>
       <r>     4.4781     0.0001    48.0000 </r>
       <r>     4.5719     0.0000    48.0000 </r>
       <r>     4.6656     0.0000    48.0000 </r>
       <r>     4.7594     0.0000    48.0000 </r>
       <r>     4.8532     0.0000    48.0000 </r>
       <r>     4.9469     0.0000    48.0000 </r>
       <r>     5.0407     0.0000    48.0000 </r>
       <r>     5.1345     0.0000    48.0000 </r>
       <r>     5.2282     0.0000    48.0000 </r>
       <r>     5.3220     0.0000    48.0000 </r>
       <r>     5.4158     0.0000    48.0000 </r>
       <r>     5.5095     0.0000    48.0000 </r>
       <r>     5.6033     0.0000    48.0000 </r>
       <r>     5.6971     0.0000    48.0000 </r>
       <r>     5.7909     0.0000    48.0000 </r>
       <r>     5.8846     0.0000    48.0000 </r>
      </set>
     </set>
    </array>
   </total>
  </dos>
 </calculation>
 <structure name="finalpos" >
  <crystal>
   <varray name="basis" >
    <v>       5.17400000       0.00000000       0.00000000 </v>
    <v>       2.58700000       4.48100000       0.00000000 </v>
    <v>       0.00000000       0.00000000      20.00000000 </v>
   </varray>
   <i name="volume">    463.69388000 </i>
   <varray name="rec_basis" >
    <v>       0.19327406      -0.11158224       0.00000000 </v>
    <v>       0.00000000       0.22316447       0.00000000 </v>
    <v>       0.00000000       0.00000000       0.05000000 </v>
   </varray>
  </crystal>
  <varray name="positions" >
   <v>       0.17462148       0.17452974       0.00000000 </v>
   <v>       0.50787696       0.50801880      -0.00000000 </v>
   <v>      -0.00059117      -0.00036399       0.00000000 </v>
   <v>       0.52472787      -0.00036399       0.00000000 </v>
   <v>       0.68308453       0.15760365       0.00000000 </v>
   <v>       0.99941391       0.52494489       0.00000000 </v>
   <v>       0.15777057       0.68291253       0.00000000 </v>
   <v>       0.68308961       0.68291253      -0.00000000 </v>
  </varray>
 </structure>
</modeling>
