cd Si                                   
   5.80000000000000     
     0.000000    0.500000    0.500000
     0.500000    0.000000    0.500000
     0.500000    0.500000    0.000000
   Si
     2
Direct
  0.875000  0.875000  0.875000
  0.125000  0.125000  0.125000
 
   48   48   48
 0.22591239455E+02 0.22606132912E+02 0.22638060090E+02 0.22651895135E+02 0.22599116360E+02
 0.22423569798E+02 0.22046473486E+02 0.21430082216E+02 0.20613935378E+02 0.19711984619E+02
 0.18886801273E+02 0.18306643993E+02 0.18097674367E+02 0.18306643855E+02 0.18886801059E+02
 0.19711984423E+02 0.20613935289E+02 0.21430082272E+02 0.22046473662E+02 0.22423570002E+02
 0.22599116478E+02 0.22651895076E+02 0.22638059816E+02 0.22606132470E+02 0.22591238947E+02
 0.22606132470E+02 0.22638059816E+02 0.22651895076E+02 0.22599116478E+02 0.22423570002E+02
 0.22046473662E+02 0.21430082272E+02 0.20613935289E+02 0.19711984423E+02 0.18886801059E+02
 0.18306643855E+02 0.18097674367E+02 0.18306643993E+02 0.18886801273E+02 0.19711984619E+02
 0.20613935378E+02 0.21430082216E+02 0.22046473486E+02 0.22423569798E+02 0.22599116360E+02
 0.22651895135E+02 0.22638060090E+02 0.22606132912E+02 0.22606132912E+02 0.22877811544E+02
 0.23130990705E+02 0.23308991897E+02 0.23331042699E+02 0.23075680103E+02 0.22469917683E+02
 0.21532666019E+02 0.20382326134E+02 0.19216222855E+02 0.18264419352E+02 0.17729365047E+02
 0.17729364946E+02 0.18264419085E+02 0.19216222513E+02 0.20382325829E+02 0.21532665838E+02
 0.22469917652E+02 0.23075680183E+02 0.23331042798E+02 0.23308991909E+02 0.23130990559E+02
 0.22877811227E+02 0.22606132483E+02 0.22354104900E+02 0.22135033702E+02 0.21937467665E+02
 0.21731179136E+02 0.21477747218E+02 0.21142601796E+02 0.20688460723E+02 0.20102107504E+02
 0.19428701248E+02 0.18763507206E+02 0.18226083260E+02 0.17925131196E+02 0.17925131228E+02
 0.18226083332E+02 0.18763507263E+02 0.19428701226E+02 0.20102107367E+02 0.20688460484E+02
 0.21142601527E+02 0.21477747012E+02 0.21731179084E+02 0.21937467815E+02 0.22135034035E+02
 0.22354105339E+02 0.22638060090E+02 0.23130990705E+02 0.23552107905E+02 0.23801463070E+02
 0.23717444859E+02 0.23182450494E+02 0.22178751904E+02 0.20809711146E+02 0.19289852773E+02
 0.17901791883E+02 0.16928367861E+02 0.16578285182E+02 0.16928367659E+02 0.17901791536E+02
 0.19289852375E+02 0.20809710795E+02 0.22178751668E+02 0.23182450386E+02 0.23717444843E+02
 0.23801463077E+02 0.23552107859E+02 0.23130990562E+02 0.22638059848E+02 0.22135033742E+02
 0.21660867674E+02 0.21228712655E+02 0.20829053824E+02 0.20437703479E+02 0.20026747146E+02
 0.19576156200E+02 0.19080116085E+02 0.18544173148E+02 0.18007868508E+02 0.17540624660E+02
 0.17219798677E+02 0.17105349815E+02 0.17219798655E+02 0.17540624599E+02 0.18007868384E+02
 0.18544172951E+02 0.19080115832E+02 0.19576155933E+02 0.20026746924E+02 0.20437703368E+02
 0.20829053859E+02 0.21228712831E+02 0.21660867946E+02 0.22135034035E+02 0.22651895135E+02
 0.23308991897E+02 0.23801463070E+02 0.23935467224E+02 0.23544169692E+02 0.22559648869E+02
 0.21049040471E+02 0.19219572173E+02 0.17385442795E+02 0.15899948042E+02 0.15068649959E+02
 0.15068649871E+02 0.15899947799E+02 0.17385442450E+02 0.19219571795E+02 0.21049040129E+02
 0.22559648611E+02 0.23544169534E+02 0.23935467149E+02 0.23801463044E+02 0.23308991876E+02
 0.22651895089E+02 0.21937467732E+02 0.21228712725E+02 0.20563234208E+02 0.19953444761E+02
 0.19392099431E+02 0.18861232898E+02 0.18342335724E+02 0.17825595512E+02 0.17316233353E+02
 0.16835246793E+02 0.16414140328E+02 0.16096215020E+02 0.15924145899E+02 0.15924145859E+02
 0.16096214907E+02 0.16414140153E+02 0.16835246580E+02 0.17316233128E+02 0.17825595306E+02
 0.18342335571E+02 0.18861232819E+02 0.19392099430E+02 0.19953444826E+02 0.20563234311E+02
 0.21228712831E+02 0.21937467815E+02 0.22599116360E+02 0.23331042699E+02 0.23717444859E+02
 0.23544169692E+02 0.22685201792E+02 0.21152907060E+02 0.19120223700E+02 0.16903197624E+02
 0.14901434665E+02 0.13507300140E+02 0.13007548747E+02 0.13507300026E+02 0.14901434453E+02
 0.16903197341E+02 0.19120223384E+02 0.21152906754E+02 0.22685201537E+02 0.23544169517E+02
 0.23717444776E+02 0.23331042703E+02 0.22599116423E+02 0.21731179171E+02 0.20829053932E+02
 0.19953444859E+02 0.19138817038E+02 0.18396367816E+02 0.17721018907E+02 0.17100261185E+02
 0.16522781072E+02 0.15985129097E+02 0.15495196212E+02 0.15071889648E+02 0.14741164592E+02
 0.14529462427E+02 0.14456448971E+02 0.14529462334E+02 0.14741164430E+02 0.15071889460E+02
 0.15495196045E+02 0.15985128987E+02 0.16522781034E+02 0.17100261206E+02 0.17721018960E+02
 0.18396367866E+02 0.19138817053E+02 0.19953444826E+02 0.20829053859E+02 0.21731179084E+02
 0.22423569798E+02 0.23075680103E+02 0.23182450494E+02 0.22559648869E+02 0.21152907060E+02
 0.19076713027E+02 0.16615892360E+02 0.14181611001E+02 0.12226373347E+02 0.11137216022E+02
 0.11137215994E+02 0.12226373259E+02 0.14181610850E+02 0.16615892148E+02 0.19076712769E+02
 0.21152906788E+02 0.22559648630E+02 0.23182450333E+02 0.23075680052E+02 0.22423569861E+02
 0.21477747160E+02 0.20437703549E+02 0.19392099581E+02 0.18396367939E+02 0.17480546115E+02
 0.16654174748E+02 0.15913776556E+02 0.15250826204E+02 0.14658504146E+02 0.14136090855E+02
 0.13690483102E+02 0.13334906823E+02 0.13085445246E+02 0.12956483845E+02 0.12956483803E+02
 0.13085445138E+02 0.13334906693E+02 0.13690483006E+02 0.14136090834E+02 0.14658504212E+02
 0.15250826336E+02 0.15913776708E+02 0.16654174860E+02 0.17480546142E+02 0.18396367866E+02
 0.19392099430E+02 0.20437703368E+02 0.21477747012E+02 0.22046473486E+02 0.22469917683E+02
 0.22178751904E+02 0.21049040471E+02 0.19120223700E+02 0.16615892360E+02 0.13919905218E+02
 0.11505944937E+02 0.98332372824E+01 0.92350704497E+01 0.98332372598E+01 0.11505944879E+02
 0.13919905106E+02 0.16615892184E+02 0.19120223471E+02 0.21049040224E+02 0.22178751692E+02
 0.22469917555E+02 0.22046473475E+02 0.21142601630E+02 0.20026747102E+02 0.18861233008E+02
 0.17721019092E+02 0.16654174885E+02 0.15685492026E+02 0.14822379955E+02 0.14062040332E+02
 0.13398143487E+02 0.12825799450E+02 0.12344266161E+02 0.11957416019E+02 0.11672400396E+02
 0.11497219531E+02 0.11438054139E+02 0.11497219481E+02 0.11672400326E+02 0.11957415976E+02
 0.12344266191E+02 0.12825799571E+02 0.13398143684E+02 0.14062040556E+02 0.14822380142E+02
 0.15685492120E+02 0.16654174860E+02 0.17721018960E+02 0.18861232819E+02 0.20026746924E+02
 0.21142601527E+02 0.21430082216E+02 0.21532666019E+02 0.20809711146E+02 0.19219572173E+02
 0.16903197624E+02 0.14181611001E+02 0.11505944937E+02 0.93658149073E+01 0.81765821570E+01
 0.81765821507E+01 0.93658148816E+01 0.11505944873E+02 0.14181610883E+02 0.16903197449E+02
 0.19219571957E+02 0.20809710927E+02 0.21532665845E+02 0.21430082127E+02 0.20688460495E+02
 0.19576156029E+02 0.18342335709E+02 0.17100261327E+02 0.15913776758E+02 0.14822380091E+02
 0.13845155704E+02 0.12986864344E+02 0.12244319145E+02 0.11611699135E+02 0.11084089807E+02
 0.10659146437E+02 0.10337203742E+02 0.10120361980E+02 0.10011125036E+02 0.10011125021E+02
 0.10120361946E+02 0.10337203722E+02 0.10659146469E+02 0.11084089914E+02 0.11611699315E+02
 0.12244319365E+02 0.12986864554E+02 0.13845155853E+02 0.14822380142E+02 0.15913776708E+02
 0.17100261206E+02 0.18342335571E+02 0.19576155933E+02 0.20688460484E+02 0.20613935378E+02
 0.20382326134E+02 0.19289852773E+02 0.17385442795E+02 0.14901434665E+02 0.12226373347E+02
 0.98332372824E+01 0.81765821570E+01 0.75845052577E+01 0.81765821314E+01 0.98332372246E+01
 0.12226373249E+02 0.14901434526E+02 0.17385442624E+02 0.19289852589E+02 0.20382325968E+02
 0.20613935258E+02 0.20102107310E+02 0.19080115837E+02 0.17825595352E+02 0.16522781087E+02
 0.15250826360E+02 0.14062040525E+02 0.12986864461E+02 0.12038461786E+02 0.11218452931E+02
 0.10522302959E+02 0.99434442884E+01 0.94758205219E+01 0.91150182992E+01 0.88584044465E+01
 0.87047224260E+01 0.86535256376E+01 0.87047224049E+01 0.88584044204E+01 0.91150182935E+01
 0.94758205597E+01 0.99434443797E+01 0.10522303095E+02 0.11218453086E+02 0.12038461925E+02
 0.12986864554E+02 0.14062040556E+02 0.15250826336E+02 0.16522781034E+02 0.17825595306E+02
 0.19080115832E+02 0.20102107367E+02 0.19711984619E+02 0.19216222855E+02 0.17901791883E+02
 0.15899948042E+02 0.13507300140E+02 0.11137216022E+02 0.92350704497E+01 0.81765821507E+01
 0.81765821314E+01 0.92350703925E+01 0.11137215933E+02 0.13507300029E+02 0.15899947921E+02
 0.17901791765E+02 0.19216222751E+02 0.19711984539E+02 0.19428701171E+02 0.18544172918E+02
 0.17316233106E+02 0.15985128964E+02 0.14658504177E+02 0.13398143632E+02 0.12244319299E+02
 0.11218453015E+02 0.10327775371E+02 0.95704271891E+01 0.89398950913E+01 0.84282156899E+01
 0.80278918404E+01 0.77327968071E+01 0.75384470737E+01 0.74419679284E+01 0.74419679136E+01
 0.75384470343E+01 0.77327967565E+01 0.80278917959E+01 0.84282156675E+01 0.89398950998E+01
 0.95704272289E+01 0.10327775433E+02 0.11218453086E+02 0.12244319365E+02 0.13398143684E+02
 0.14658504212E+02 0.15985128987E+02 0.17316233128E+02 0.18544172951E+02 0.19428701226E+02
 0.18886801273E+02 0.18264419352E+02 0.16928367861E+02 0.15068649959E+02 0.13007548747E+02
 0.11137215994E+02 0.98332372598E+01 0.93658148816E+01 0.98332372246E+01 0.11137215933E+02
 0.13007548679E+02 0.15068649904E+02 0.16928367833E+02 0.18264419351E+02 0.18886801292E+02
 0.18763507283E+02 0.18007868387E+02 0.16835246554E+02 0.15495195986E+02 0.14136090752E+02
 0.12825799481E+02 0.11611699239E+02 0.10522303051E+02 0.95704272282E+01 0.87575808103E+01
 0.80783710873E+01 0.75241337755E+01 0.70854702058E+01 0.67537669752E+01 0.65219786269E+01
 0.63849716523E+01 0.63396473007E+01 0.63849716142E+01 0.65219785553E+01 0.67537668789E+01
 0.70854700979E+01 0.75241336724E+01 0.80783710064E+01 0.87575807659E+01 0.95704272289E+01
 0.10522303095E+02 0.11611699315E+02 0.12825799571E+02 0.14136090834E+02 0.15495196045E+02
 0.16835246580E+02 0.18007868384E+02 0.18763507263E+02 0.18306643993E+02 0.17729365047E+02
 0.16578285182E+02 0.15068649871E+02 0.13507300026E+02 0.12226373259E+02 0.11505944879E+02
 0.11505944873E+02 0.12226373249E+02 0.13507300029E+02 0.15068649904E+02 0.16578285259E+02
 0.17729365163E+02 0.18306644132E+02 0.18226083464E+02 0.17540624692E+02 0.16414140186E+02
 0.15071889426E+02 0.13690482921E+02 0.12344266082E+02 0.11084089819E+02 0.99434443289E+01
 0.89398951110E+01 0.80783710801E+01 0.73551503043E+01 0.67616208447E+01 0.62872601817E+01
 0.59216699669E+01 0.56557916602E+01 0.54825471632E+01 0.53971332924E+01 0.53971332733E+01
 0.54825471056E+01 0.56557915650E+01 0.59216698393E+01 0.62872600340E+01 0.67616206971E+01
 0.73551501818E+01 0.80783710064E+01 0.89398950998E+01 0.99434443797E+01 0.11084089914E+02
 0.12344266191E+02 0.13690483006E+02 0.15071889460E+02 0.16414140153E+02 0.17540624599E+02
 0.18226083332E+02 0.18097674367E+02 0.17729364946E+02 0.16928367659E+02 0.15899947799E+02
 0.14901434453E+02 0.14181610850E+02 0.13919905106E+02 0.14181610883E+02 0.14901434526E+02
 0.15899947921E+02 0.16928367833E+02 0.17729365163E+02 0.18097674606E+02 0.17925131456E+02
 0.17219798837E+02 0.16096215018E+02 0.14741164459E+02 0.13334906651E+02 0.11957415891E+02
 0.10659146378E+02 0.94758204995E+01 0.84282156615E+01 0.75241337268E+01 0.67616208004E+01
 0.61325273239E+01 0.56256985484E+01 0.52294060053E+01 0.49329507170E+01 0.47275777150E+01
 0.46069128135E+01 0.45671172762E+01 0.46069127885E+01 0.47275776619E+01 0.49329506327E+01
 0.52294058918E+01 0.56256984166E+01 0.61325271938E+01 0.67616206971E+01 0.75241336724E+01
 0.84282156675E+01 0.94758205597E+01 0.10659146469E+02 0.11957415976E+02 0.13334906693E+02
 0.14741164430E+02 0.16096214907E+02 0.17219798655E+02 0.17925131228E+02 0.18306643855E+02
 0.18264419085E+02 0.17901791536E+02 0.17385442450E+02 0.16903197341E+02 0.16615892148E+02
 0.16615892184E+02 0.16903197449E+02 0.17385442624E+02 0.17901791765E+02 0.18264419351E+02
 0.18306644132E+02 0.17925131456E+02 0.17105350030E+02 0.15924146009E+02 0.14529462411E+02
 0.13085445150E+02 0.11672400293E+02 0.10337203672E+02 0.91150182520E+01 0.80278917823E+01
 0.70854701188E+01 0.62872600845E+01 0.56256984823E+01 0.50892921226E+01 0.46652816484E+01
 0.43415670654E+01 0.41078911503E+01 0.39564293500E+01 0.38819853197E+01 0.38819853192E+01
 0.39564293459E+01 0.41078911357E+01 0.43415670337E+01 0.46652815975E+01 0.50892920579E+01
 0.56256984166E+01 0.62872600340E+01 0.70854700979E+01 0.80278917959E+01 0.91150182935E+01
 0.10337203722E+02 0.11672400326E+02 0.13085445138E+02 0.14529462334E+02 0.15924145859E+02
 0.17105349815E+02 0.17925131196E+02 0.18886801059E+02 0.19216222513E+02 0.19289852375E+02
 0.19219571795E+02 0.19120223384E+02 0.19076712769E+02 0.19120223471E+02 0.19219571957E+02
 0.19289852589E+02 0.19216222751E+02 0.18886801292E+02 0.18226083464E+02 0.17219798837E+02
 0.15924146009E+02 0.14456449036E+02 0.12956483834E+02 0.11497219491E+02 0.10120361949E+02
 0.88584044250E+01 0.77327967658E+01 0.67537668910E+01 0.59216698475E+01 0.52294058897E+01
 0.46652815803E+01 0.42157147188E+01 0.38673769711E+01 0.36086212679E+01 0.34302454741E+01
 0.33257570303E+01 0.32913444533E+01 0.33257570521E+01 0.34302455124E+01 0.36086213139E+01
 0.38673770146E+01 0.42157147514E+01 0.46652815975E+01 0.52294058918E+01 0.59216698393E+01
 0.67537668789E+01 0.77327967565E+01 0.88584044204E+01 0.10120361946E+02 0.11497219481E+02
 0.12956483803E+02 0.14456448971E+02 0.15924145899E+02 0.17219798677E+02 0.18226083260E+02
 0.19711984423E+02 0.20382325829E+02 0.20809710795E+02 0.21049040129E+02 0.21152906754E+02
 0.21152906788E+02 0.21049040224E+02 0.20809710927E+02 0.20382325968E+02 0.19711984539E+02
 0.18763507283E+02 0.17540624692E+02 0.16096215018E+02 0.14529462411E+02 0.12956483834E+02
 0.11438054149E+02 0.10011125054E+02 0.87047224561E+01 0.75384470862E+01 0.65219785901E+01
 0.56557915684E+01 0.49329505979E+01 0.43415669634E+01 0.38673769192E+01 0.34959721747E+01
 0.32144122718E+01 0.30121642935E+01 0.28814713471E+01 0.28173359855E+01 0.28173360037E+01
 0.28814713998E+01 0.30121643751E+01 0.32144123722E+01 0.34959722806E+01 0.38673770146E+01
 0.43415670337E+01 0.49329506327E+01 0.56557915650E+01 0.65219785553E+01 0.75384470343E+01
 0.87047224049E+01 0.10011125021E+02 0.11438054139E+02 0.12956483845E+02 0.14529462427E+02
 0.16096215020E+02 0.17540624660E+02 0.18763507206E+02 0.20613935289E+02 0.21532665838E+02
 0.22178751668E+02 0.22559648611E+02 0.22685201537E+02 0.22559648630E+02 0.22178751692E+02
 0.21532665845E+02 0.20613935258E+02 0.19428701171E+02 0.18007868387E+02 0.16414140186E+02
 0.14741164459E+02 0.13085445150E+02 0.11497219491E+02 0.10011125054E+02 0.86535257002E+01
 0.74419679928E+01 0.63849716805E+01 0.54825471332E+01 0.47275776388E+01 0.41078910633E+01
 0.36086212059E+01 0.32144122484E+01 0.29111360641E+01 0.26869814467E+01 0.25329451355E+01
 0.24428682634E+01 0.24132230978E+01 0.24428682992E+01 0.25329452055E+01 0.26869815463E+01
 0.29111361836E+01 0.32144123722E+01 0.36086213139E+01 0.41078911357E+01 0.47275776619E+01
 0.54825471056E+01 0.63849716142E+01 0.74419679136E+01 0.86535256376E+01 0.10011125036E+02
 0.11497219531E+02 0.13085445246E+02 0.14741164592E+02 0.16414140328E+02 0.18007868508E+02
 0.19428701248E+02 0.21430082272E+02 0.22469917652E+02 0.23182450386E+02 0.23544169534E+02
 0.23544169517E+02 0.23182450333E+02 0.22469917555E+02 0.21430082127E+02 0.20102107310E+02
 0.18544172918E+02 0.16835246554E+02 0.15071889426E+02 0.13334906651E+02 0.11672400293E+02
 0.10120361949E+02 0.87047224561E+01 0.74419679928E+01 0.63396473695E+01 0.53971333190E+01
 0.46069127947E+01 0.39564293090E+01 0.34302454417E+01 0.30121642861E+01 0.26869814569E+01
 0.24416792504E+01 0.22660344530E+01 0.21527354097E+01 0.20971824181E+01 0.20971824290E+01
 0.21527354432E+01 0.22660345092E+01 0.24416793272E+01 0.26869815463E+01 0.30121643751E+01
 0.34302455124E+01 0.39564293459E+01 0.46069127885E+01 0.53971332733E+01 0.63396473007E+01
 0.74419679284E+01 0.87047224260E+01 0.10120361980E+02 0.11672400396E+02 0.13334906823E+02
 0.15071889648E+02 0.16835246793E+02 0.18544173148E+02 0.20102107504E+02 0.22046473662E+02
 0.23075680183E+02 0.23717444843E+02 0.23935467149E+02 0.23717444776E+02 0.23075680052E+02
 0.22046473475E+02 0.20688460495E+02 0.19080115837E+02 0.17316233106E+02 0.15495195986E+02
 0.13690482921E+02 0.11957415891E+02 0.10337203672E+02 0.88584044250E+01 0.75384470862E+01
 0.63849716805E+01 0.53971333190E+01 0.45671172903E+01 0.38819853169E+01 0.33257570361E+01
 0.28814713772E+01 0.25329451837E+01 0.22660344934E+01 0.20693379118E+01 0.19344006513E+01
 0.18555602054E+01 0.18296218180E+01 0.18555602056E+01 0.19344006540E+01 0.20693379201E+01
 0.22660345092E+01 0.25329452055E+01 0.28814713998E+01 0.33257570521E+01 0.38819853192E+01
 0.45671172762E+01 0.53971332924E+01 0.63849716523E+01 0.75384470737E+01 0.88584044465E+01
 0.10337203742E+02 0.11957416019E+02 0.13690483102E+02 0.15495196212E+02 0.17316233353E+02
 0.19080116085E+02 0.20688460723E+02 0.22423570002E+02 0.23331042798E+02 0.23801463077E+02
 0.23801463044E+02 0.23331042703E+02 0.22423569861E+02 0.21142601630E+02 0.19576156029E+02
 0.17825595352E+02 0.15985128964E+02 0.14136090752E+02 0.12344266082E+02 0.10659146378E+02
 0.91150182520E+01 0.77327967658E+01 0.65219785901E+01 0.54825471332E+01 0.46069127947E+01
 0.38819853169E+01 0.32913444696E+01 0.28173360389E+01 0.24428683498E+01 0.21527355023E+01
 0.19344007130E+01 0.17782803790E+01 0.16776477741E+01 0.16283217814E+01 0.16283217697E+01
 0.16776477407E+01 0.17782803290E+01 0.19344006540E+01 0.21527354432E+01 0.24428682992E+01
 0.28173360037E+01 0.32913444533E+01 0.38819853197E+01 0.46069128135E+01 0.54825471632E+01
 0.65219786269E+01 0.77327968071E+01 0.91150182992E+01 0.10659146437E+02 0.12344266161E+02
 0.14136090855E+02 0.15985129097E+02 0.17825595512E+02 0.19576156200E+02 0.21142601796E+02
 0.22599116478E+02 0.23308991909E+02 0.23552107859E+02 0.23308991876E+02 0.22599116423E+02
 0.21477747160E+02 0.20026747102E+02 0.18342335709E+02 0.16522781087E+02 0.14658504177E+02
 0.12825799481E+02 0.11084089819E+02 0.94758204995E+01 0.80278917823E+01 0.67537668910E+01
 0.56557915684E+01 0.47275776388E+01 0.39564293090E+01 0.33257570361E+01 0.28173360389E+01
 0.24132231897E+01 0.20971825433E+01 0.18555603236E+01 0.16776478450E+01 0.15556445574E+01
 0.14843755183E+01 0.14609304272E+01 0.14843754776E+01 0.15556444804E+01 0.16776477407E+01
 0.18555602056E+01 0.20971824290E+01 0.24132230978E+01 0.28173359855E+01 0.33257570303E+01
 0.39564293500E+01 0.47275777150E+01 0.56557916602E+01 0.67537669752E+01 0.80278918404E+01
 0.94758205219E+01 0.11084089807E+02 0.12825799450E+02 0.14658504146E+02 0.16522781072E+02
 0.18342335724E+02 0.20026747146E+02 0.21477747218E+02 0.22651895076E+02 0.23130990559E+02
 0.23130990562E+02 0.22651895089E+02 0.21731179171E+02 0.20437703549E+02 0.18861233008E+02
 0.17100261327E+02 0.15250826360E+02 0.13398143632E+02 0.11611699239E+02 0.99434443289E+01
 0.84282156615E+01 0.70854701188E+01 0.59216698475E+01 0.49329505979E+01 0.41078910633E+01
 0.34302454417E+01 0.28814713772E+01 0.24428683498E+01 0.20971825433E+01 0.18296219592E+01
 0.16283219040E+01 0.14843755863E+01 0.13915861845E+01 0.13461056152E+01 0.13461055911E+01
 0.13915861144E+01 0.14843754776E+01 0.16283217697E+01 0.18296218180E+01 0.20971824181E+01
 0.24428682634E+01 0.28814713471E+01 0.34302454741E+01 0.41078911503E+01 0.49329507170E+01
 0.59216699669E+01 0.70854702058E+01 0.84282156899E+01 0.99434442884E+01 0.11611699135E+02
 0.13398143487E+02 0.15250826204E+02 0.17100261185E+02 0.18861232898E+02 0.20437703479E+02
 0.21731179136E+02 0.22638059816E+02 0.22877811227E+02 0.22638059848E+02 0.21937467732E+02
 0.20829053932E+02 0.19392099581E+02 0.17721019092E+02 0.15913776758E+02 0.14062040525E+02
 0.12244319299E+02 0.10522303051E+02 0.89398951110E+01 0.75241337268E+01 0.62872600845E+01
 0.52294058897E+01 0.43415669634E+01 0.36086212059E+01 0.30121642861E+01 0.25329451837E+01
 0.21527355023E+01 0.18555603236E+01 0.16283219040E+01 0.14609305354E+01 0.13461056705E+01
 0.12790221524E+01 0.12569539001E+01 0.12790221106E+01 0.13461055911E+01 0.14609304272E+01
 0.16283217814E+01 0.18555602054E+01 0.21527354097E+01 0.25329451355E+01 0.30121642935E+01
 0.36086212679E+01 0.43415670654E+01 0.52294060053E+01 0.62872601817E+01 0.75241337755E+01
 0.89398950913E+01 0.10522302959E+02 0.12244319145E+02 0.14062040332E+02 0.15913776556E+02
 0.17721018907E+02 0.19392099431E+02 0.20829053824E+02 0.21937467665E+02 0.22606132470E+02
 0.22606132483E+02 0.22135033742E+02 0.21228712725E+02 0.19953444859E+02 0.18396367939E+02
 0.16654174885E+02 0.14822380091E+02 0.12986864461E+02 0.11218453015E+02 0.95704272282E+01
 0.80783710801E+01 0.67616208004E+01 0.56256984823E+01 0.46652815803E+01 0.38673769192E+01
 0.32144122484E+01 0.26869814569E+01 0.22660344934E+01 0.19344007130E+01 0.16776478450E+01
 0.14843755863E+01 0.13461056705E+01 0.12569539359E+01 0.12132538736E+01 0.12132538613E+01
 0.12569539001E+01 0.13461056152E+01 0.14843755183E+01 0.16776477741E+01 0.19344006513E+01
 0.22660344530E+01 0.26869814467E+01 0.32144122718E+01 0.38673769711E+01 0.46652816484E+01
 0.56256985484E+01 0.67616208447E+01 0.80783710873E+01 0.95704271891E+01 0.11218452931E+02
 0.12986864344E+02 0.14822379955E+02 0.16654174748E+02 0.18396367816E+02 0.19953444761E+02
 0.21228712655E+02 0.22135033702E+02 0.22591238947E+02 0.22354104900E+02 0.21660867674E+02
 0.20563234208E+02 0.19138817038E+02 0.17480546115E+02 0.15685492026E+02 0.13845155704E+02
 0.12038461786E+02 0.10327775371E+02 0.87575808103E+01 0.73551503043E+01 0.61325273239E+01
 0.50892921226E+01 0.42157147188E+01 0.34959721747E+01 0.29111360641E+01 0.24416792504E+01
 0.20693379118E+01 0.17782803790E+01 0.15556445574E+01 0.13915861845E+01 0.12790221524E+01
 0.12132538736E+01 0.11916181031E+01 0.12132538736E+01 0.12790221524E+01 0.13915861845E+01
 0.15556445574E+01 0.17782803790E+01 0.20693379118E+01 0.24416792504E+01 0.29111360641E+01
 0.34959721747E+01 0.42157147188E+01 0.50892921226E+01 0.61325273239E+01 0.73551503043E+01
 0.87575808103E+01 0.10327775371E+02 0.12038461786E+02 0.13845155704E+02 0.15685492026E+02
 0.17480546115E+02 0.19138817038E+02 0.20563234208E+02 0.21660867674E+02 0.22354104900E+02
 0.22606132470E+02 0.22135033702E+02 0.21228712655E+02 0.19953444761E+02 0.18396367816E+02
 0.16654174748E+02 0.14822379955E+02 0.12986864344E+02 0.11218452931E+02 0.95704271891E+01
 0.80783710873E+01 0.67616208447E+01 0.56256985484E+01 0.46652816484E+01 0.38673769711E+01
 0.32144122718E+01 0.26869814467E+01 0.22660344530E+01 0.19344006513E+01 0.16776477741E+01
 0.14843755183E+01 0.13461056152E+01 0.12569539001E+01 0.12132538613E+01 0.12132538736E+01
 0.12569539359E+01 0.13461056705E+01 0.14843755863E+01 0.16776478450E+01 0.19344007130E+01
 0.22660344934E+01 0.26869814569E+01 0.32144122484E+01 0.38673769192E+01 0.46652815803E+01
 0.56256984823E+01 0.67616208004E+01 0.80783710801E+01 0.95704272282E+01 0.11218453015E+02
 0.12986864461E+02 0.14822380091E+02 0.16654174885E+02 0.18396367939E+02 0.19953444859E+02
 0.21228712725E+02 0.22135033742E+02 0.22606132483E+02 0.22638059816E+02 0.21937467665E+02
 0.20829053824E+02 0.19392099431E+02 0.17721018907E+02 0.15913776556E+02 0.14062040332E+02
 0.12244319145E+02 0.10522302959E+02 0.89398950913E+01 0.75241337755E+01 0.62872601817E+01
 0.52294060053E+01 0.43415670654E+01 0.36086212679E+01 0.30121642935E+01 0.25329451355E+01
 0.21527354097E+01 0.18555602054E+01 0.16283217814E+01 0.14609304272E+01 0.13461055911E+01
 0.12790221106E+01 0.12569539001E+01 0.12790221524E+01 0.13461056705E+01 0.14609305354E+01
 0.16283219040E+01 0.18555603236E+01 0.21527355023E+01 0.25329451837E+01 0.30121642861E+01
 0.36086212059E+01 0.43415669634E+01 0.52294058897E+01 0.62872600845E+01 0.75241337268E+01
 0.89398951110E+01 0.10522303051E+02 0.12244319299E+02 0.14062040525E+02 0.15913776758E+02
 0.17721019092E+02 0.19392099581E+02 0.20829053932E+02 0.21937467732E+02 0.22638059848E+02
 0.22877811227E+02 0.22651895076E+02 0.21731179136E+02 0.20437703479E+02 0.18861232898E+02
 0.17100261185E+02 0.15250826204E+02 0.13398143487E+02 0.11611699135E+02 0.99434442884E+01
 0.84282156899E+01 0.70854702058E+01 0.59216699669E+01 0.49329507170E+01 0.41078911503E+01
 0.34302454741E+01 0.28814713471E+01 0.24428682634E+01 0.20971824181E+01 0.18296218180E+01
 0.16283217697E+01 0.14843754776E+01 0.13915861144E+01 0.13461055911E+01 0.13461056152E+01
 0.13915861845E+01 0.14843755863E+01 0.16283219040E+01 0.18296219592E+01 0.20971825433E+01
 0.24428683498E+01 0.28814713772E+01 0.34302454417E+01 0.41078910633E+01 0.49329505979E+01
 0.59216698475E+01 0.70854701188E+01 0.84282156615E+01 0.99434443289E+01 0.11611699239E+02
 0.13398143632E+02 0.15250826360E+02 0.17100261327E+02 0.18861233008E+02 0.20437703549E+02
 0.21731179171E+02 0.22651895089E+02 0.23130990562E+02 0.23130990559E+02 0.22599116478E+02
 0.21477747218E+02 0.20026747146E+02 0.18342335724E+02 0.16522781072E+02 0.14658504146E+02
 0.12825799450E+02 0.11084089807E+02 0.94758205219E+01 0.80278918404E+01 0.67537669752E+01
 0.56557916602E+01 0.47275777150E+01 0.39564293500E+01 0.33257570303E+01 0.28173359855E+01
 0.24132230978E+01 0.20971824290E+01 0.18555602056E+01 0.16776477407E+01 0.15556444804E+01
 0.14843754776E+01 0.14609304272E+01 0.14843755183E+01 0.15556445574E+01 0.16776478450E+01
 0.18555603236E+01 0.20971825433E+01 0.24132231897E+01 0.28173360389E+01 0.33257570361E+01
 0.39564293090E+01 0.47275776388E+01 0.56557915684E+01 0.67537668910E+01 0.80278917823E+01
 0.94758204995E+01 0.11084089819E+02 0.12825799481E+02 0.14658504177E+02 0.16522781087E+02
 0.18342335709E+02 0.20026747102E+02 0.21477747160E+02 0.22599116423E+02 0.23308991876E+02
 0.23552107859E+02 0.23308991909E+02 0.22423570002E+02 0.21142601796E+02 0.19576156200E+02
 0.17825595512E+02 0.15985129097E+02 0.14136090855E+02 0.12344266161E+02 0.10659146437E+02
 0.91150182992E+01 0.77327968071E+01 0.65219786269E+01 0.54825471632E+01 0.46069128135E+01
 0.38819853197E+01 0.32913444533E+01 0.28173360037E+01 0.24428682992E+01 0.21527354432E+01
 0.19344006540E+01 0.17782803290E+01 0.16776477407E+01 0.16283217697E+01 0.16283217814E+01
 0.16776477741E+01 0.17782803790E+01 0.19344007130E+01 0.21527355023E+01 0.24428683498E+01
 0.28173360389E+01 0.32913444696E+01 0.38819853169E+01 0.46069127947E+01 0.54825471332E+01
 0.65219785901E+01 0.77327967658E+01 0.91150182520E+01 0.10659146378E+02 0.12344266082E+02
 0.14136090752E+02 0.15985128964E+02 0.17825595352E+02 0.19576156029E+02 0.21142601630E+02
 0.22423569861E+02 0.23331042703E+02 0.23801463044E+02 0.23801463077E+02 0.23331042798E+02
 0.22046473662E+02 0.20688460723E+02 0.19080116085E+02 0.17316233353E+02 0.15495196212E+02
 0.13690483102E+02 0.11957416019E+02 0.10337203742E+02 0.88584044465E+01 0.75384470737E+01
 0.63849716523E+01 0.53971332924E+01 0.45671172762E+01 0.38819853192E+01 0.33257570521E+01
 0.28814713998E+01 0.25329452055E+01 0.22660345092E+01 0.20693379201E+01 0.19344006540E+01
 0.18555602056E+01 0.18296218180E+01 0.18555602054E+01 0.19344006513E+01 0.20693379118E+01
 0.22660344934E+01 0.25329451837E+01 0.28814713772E+01 0.33257570361E+01 0.38819853169E+01
 0.45671172903E+01 0.53971333190E+01 0.63849716805E+01 0.75384470862E+01 0.88584044250E+01
 0.10337203672E+02 0.11957415891E+02 0.13690482921E+02 0.15495195986E+02 0.17316233106E+02
 0.19080115837E+02 0.20688460495E+02 0.22046473475E+02 0.23075680052E+02 0.23717444776E+02
 0.23935467149E+02 0.23717444843E+02 0.23075680183E+02 0.21430082272E+02 0.20102107504E+02
 0.18544173148E+02 0.16835246793E+02 0.15071889648E+02 0.13334906823E+02 0.11672400396E+02
 0.10120361980E+02 0.87047224260E+01 0.74419679284E+01 0.63396473007E+01 0.53971332733E+01
 0.46069127885E+01 0.39564293459E+01 0.34302455124E+01 0.30121643751E+01 0.26869815463E+01
 0.24416793272E+01 0.22660345092E+01 0.21527354432E+01 0.20971824290E+01 0.20971824181E+01
 0.21527354097E+01 0.22660344530E+01 0.24416792504E+01 0.26869814569E+01 0.30121642861E+01
 0.34302454417E+01 0.39564293090E+01 0.46069127947E+01 0.53971333190E+01 0.63396473695E+01
 0.74419679928E+01 0.87047224561E+01 0.10120361949E+02 0.11672400293E+02 0.13334906651E+02
 0.15071889426E+02 0.16835246554E+02 0.18544172918E+02 0.20102107310E+02 0.21430082127E+02
 0.22469917555E+02 0.23182450333E+02 0.23544169517E+02 0.23544169534E+02 0.23182450386E+02
 0.22469917652E+02 0.20613935289E+02 0.19428701248E+02 0.18007868508E+02 0.16414140328E+02
 0.14741164592E+02 0.13085445246E+02 0.11497219531E+02 0.10011125036E+02 0.86535256376E+01
 0.74419679136E+01 0.63849716142E+01 0.54825471056E+01 0.47275776619E+01 0.41078911357E+01
 0.36086213139E+01 0.32144123722E+01 0.29111361836E+01 0.26869815463E+01 0.25329452055E+01
 0.24428682992E+01 0.24132230978E+01 0.24428682634E+01 0.25329451355E+01 0.26869814467E+01
 0.29111360641E+01 0.32144122484E+01 0.36086212059E+01 0.41078910633E+01 0.47275776388E+01
 0.54825471332E+01 0.63849716805E+01 0.74419679928E+01 0.86535257002E+01 0.10011125054E+02
 0.11497219491E+02 0.13085445150E+02 0.14741164459E+02 0.16414140186E+02 0.18007868387E+02
 0.19428701171E+02 0.20613935258E+02 0.21532665845E+02 0.22178751692E+02 0.22559648630E+02
 0.22685201537E+02 0.22559648611E+02 0.22178751668E+02 0.21532665838E+02 0.19711984423E+02
 0.18763507206E+02 0.17540624660E+02 0.16096215020E+02 0.14529462427E+02 0.12956483845E+02
 0.11438054139E+02 0.10011125021E+02 0.87047224049E+01 0.75384470343E+01 0.65219785553E+01
 0.56557915650E+01 0.49329506327E+01 0.43415670337E+01 0.38673770146E+01 0.34959722806E+01
 0.32144123722E+01 0.30121643751E+01 0.28814713998E+01 0.28173360037E+01 0.28173359855E+01
 0.28814713471E+01 0.30121642935E+01 0.32144122718E+01 0.34959721747E+01 0.38673769192E+01
 0.43415669634E+01 0.49329505979E+01 0.56557915684E+01 0.65219785901E+01 0.75384470862E+01
 0.87047224561E+01 0.10011125054E+02 0.11438054149E+02 0.12956483834E+02 0.14529462411E+02
 0.16096215018E+02 0.17540624692E+02 0.18763507283E+02 0.19711984539E+02 0.20382325968E+02
 0.20809710927E+02 0.21049040224E+02 0.21152906788E+02 0.21152906754E+02 0.21049040129E+02