 running on   12 total cores
 distrk:  each k-point on   12 cores,    1 groups
 distr:  one band on    1 cores,   12 groups
 using from now: INCAR     
 vasp.5.4.4.18Apr17-6-g9f103f2a35 (build Mar 30 2023 15:39:25) complex          
  
 POSCAR found type information on POSCAR  B  C 
 POSCAR found :  2 types and       8 ions
 scaLAPACK will be used

 ----------------------------------------------------------------------------- 
|                                                                             |
|           W    W    AA    RRRRR   N    N  II  N    N   GGGG   !!!           |
|           W    W   A  A   R    R  NN   N  II  NN   N  G    G  !!!           |
|           W    W  A    A  R    R  N N  N  II  N N  N  G       !!!           |
|           W WW W  AAAAAA  RRRRR   N  N N  II  N  N N  G  GGG   !            |
|           WW  WW  A    A  R   R   N   NN  II  N   NN  G    G                |
|           W    W  A    A  R    R  N    N  II  N    N   GGGG   !!!           |
|                                                                             |
|      For optimal performance we recommend to set                            |
|        NCORE= 4 - approx SQRT( number of cores)                             |
|      NCORE specifies how many cores store one orbital (NPAR=cpu/NCORE).     |
|      This setting can  greatly improve the performance of VASP for DFT.     |
|      The default,   NCORE=1            might be grossly inefficient         |
|      on modern multi-core architectures or massively parallel machines.     |
|      Do your own testing !!!!                                               |
|      Unfortunately you need to use the default for GW and RPA calculations. |
|      (for HF NCORE is supported but not extensively tested yet)             |
|                                                                             |
 ----------------------------------------------------------------------------- 

 LDA part: xc-table for Pade appr. of Perdew
 WARNING: stress and forces are not correct
 POSCAR, INCAR and KPOINTS ok, starting setup
 FFT: planning ...
 WAVECAR not read
 charge-density read from file: BC3                                     
 WARNING: random wavefunctions but no delay for mixing, default for NELMDL
 entering main loop
       N       E                     dE             d eps       ncg     rms          rms(c)
DAV:   1     0.130943318540E+03    0.13094E+03   -0.11311E+04   912   0.892E+02
DAV:   2    -0.504433280158E+02   -0.18139E+03   -0.16897E+03  1260   0.184E+02
DAV:   3    -0.669315003090E+02   -0.16488E+02   -0.16402E+02  1104   0.643E+01
DAV:   4    -0.672204443583E+02   -0.28894E+00   -0.28866E+00  1248   0.992E+00
DAV:   5    -0.672274262286E+02   -0.69819E-02   -0.69810E-02  1248   0.141E+00
DAV:   6    -0.672277238790E+02   -0.29765E-03   -0.29765E-03  1428   0.275E-01
DAV:   7    -0.672277301238E+02   -0.62447E-05   -0.62446E-05  1344   0.302E-02
DAV:   8    -0.672277302430E+02   -0.11920E-06   -0.11914E-06  1092   0.345E-03
   1 F= -.67227730E+02 E0= -.67227730E+02  d E =0.000000E+00
 writing wavefunctions
