<?xml version="1.0" encoding="ISO-8859-1"?>
<modeling>
 <generator>
  <i name="program" type="string">vasp </i>
  <i name="version" type="string">5.4.4.18Apr17-6-g9f103f2a35  </i>
  <i name="subversion" type="string">(build Mar 30 2023 15:39:25) complex            parallel </i>
  <i name="platform" type="string">LinuxIFC </i>
  <i name="date" type="string">2023 06 16 </i>
  <i name="time" type="string">14:21:04 </i>
 </generator>
 <incar>
  <i type="string" name="SYSTEM"> BC3</i>
  <i type="int" name="ISTART">     1</i>
  <i type="string" name="PREC">accurate</i>
  <i type="string" name="ALGO"> Normal</i>
  <i type="int" name="ICHARG">    11</i>
  <i type="int" name="IBRION">    -1</i>
  <i name="EDIFF">      0.00000100</i>
  <i name="EDIFFG">     -0.00100000</i>
  <i type="int" name="NSW">     0</i>
  <i name="ENCUT">    450.00000000</i>
  <i type="int" name="NEDOS">  1000</i>
  <i type="int" name="ISMEAR">    -5</i>
  <i name="SIGMA">      0.10000000</i>
  <i type="int" name="LORBIT">    11</i>
  <v type="int" name="KPOINT_BSE">    -1     0     0     0</v>
 </incar>
 <structure name="primitive_cell" >
  <crystal>
   <varray name="basis" >
    <v>       4.48084843       2.58701885       0.00000000 </v>
    <v>      -4.48084843       2.58701885       0.00000000 </v>
    <v>       0.00000000       0.00000000       8.52022140 </v>
   </varray>
   <i name="volume">    197.53348383 </i>
   <varray name="rec_basis" >
    <v>       0.11158601       0.19327265       0.00000000 </v>
    <v>      -0.11158601       0.19327265       0.00000000 </v>
    <v>       0.00000000       0.00000000       0.11736784 </v>
   </varray>
  </crystal>
  <varray name="positions" >
   <v>       0.33333300      -0.33333400       0.25000000 </v>
   <v>       0.15869124       0.31738348       0.25000000 </v>
   <v>      -0.31738448      -0.15869224       0.25000000 </v>
   <v>       0.15869124      -0.15869224       0.25000000 </v>
   <v>      -0.15869224       0.15869124       0.25000000 </v>
   <v>       0.31738348       0.15869124       0.25000000 </v>
   <v>      -0.15869224      -0.31738448       0.25000000 </v>
   <v>      -0.33333400       0.33333300       0.25000000 </v>
  </varray>
 </structure>
 <varray name="primitive_index" >
  <v type="int" >        1 </v>
  <v type="int" >        3 </v>
  <v type="int" >        7 </v>
  <v type="int" >        5 </v>
  <v type="int" >        6 </v>
  <v type="int" >        4 </v>
  <v type="int" >        8 </v>
  <v type="int" >        2 </v>
 </varray>
 <kpoints>
  <generation param="Gamma">
   <v type="int" name="divisions">      12       12        1 </v>
   <v name="usershift">      0.00000000       0.00000000       0.00000000 </v>
   <v name="genvec1">      0.08333333       0.00000000       0.00000000 </v>
   <v name="genvec2">      0.00000000       0.08333333       0.00000000 </v>
   <v name="genvec3">      0.00000000       0.00000000       1.00000000 </v>
   <v name="shift">      0.00000000       0.00000000       0.00000000 </v>
  </generation>
  <varray name="kpointlist" >
   <v>       0.00000000       0.00000000       0.00000000 </v>
   <v>       0.08333333       0.00000000       0.00000000 </v>
   <v>       0.16666667       0.00000000       0.00000000 </v>
   <v>       0.25000000      -0.00000000       0.00000000 </v>
   <v>       0.33333333      -0.00000000       0.00000000 </v>
   <v>       0.41666667       0.00000000       0.00000000 </v>
   <v>       0.50000000      -0.00000000       0.00000000 </v>
   <v>       0.08333333       0.08333333       0.00000000 </v>
   <v>       0.16666667       0.08333333       0.00000000 </v>
   <v>       0.25000000       0.08333333       0.00000000 </v>
   <v>       0.33333333       0.08333333       0.00000000 </v>
   <v>       0.41666667       0.08333333       0.00000000 </v>
   <v>       0.16666667       0.16666667       0.00000000 </v>
   <v>       0.25000000       0.16666667       0.00000000 </v>
   <v>       0.33333333       0.16666667       0.00000000 </v>
   <v>       0.41666667       0.16666667       0.00000000 </v>
   <v>       0.25000000       0.25000000       0.00000000 </v>
   <v>       0.33333333       0.25000000       0.00000000 </v>
   <v>       0.33333333       0.33333333       0.00000000 </v>
  </varray>
  <varray name="weights" >
   <v>       0.00694444 </v>
   <v>       0.04166667 </v>
   <v>       0.04166667 </v>
   <v>       0.04166667 </v>
   <v>       0.04166667 </v>
   <v>       0.04166667 </v>
   <v>       0.02083333 </v>
   <v>       0.04166667 </v>
   <v>       0.08333333 </v>
   <v>       0.08333333 </v>
   <v>       0.08333333 </v>
   <v>       0.08333333 </v>
   <v>       0.04166667 </v>
   <v>       0.08333333 </v>
   <v>       0.08333333 </v>
   <v>       0.04166667 </v>
   <v>       0.04166667 </v>
   <v>       0.08333333 </v>
   <v>       0.01388889 </v>
  </varray>
  <varray name="tetrahedronlist"  type="int" >
   <v type="int" >       12        2        2        2        8 </v>
   <v type="int" >       12        1        2        2        2 </v>
   <v type="int" >        6        1        1        2        2 </v>
   <v type="int" >        6        2        2        8        8 </v>
   <v type="int" >       12        3        8        8        9 </v>
   <v type="int" >       12        2        3        8        8 </v>
   <v type="int" >       12        2        2        3        8 </v>
   <v type="int" >       12        3        8        9        9 </v>
   <v type="int" >       12        3        3        8        9 </v>
   <v type="int" >       12        2        3        3        8 </v>
   <v type="int" >       12        4        9        9       10 </v>
   <v type="int" >       12        3        4        9        9 </v>
   <v type="int" >       12        3        3        4        9 </v>
   <v type="int" >       12        4        9       10       10 </v>
   <v type="int" >       12        4        4        9       10 </v>
   <v type="int" >       12        3        4        4        9 </v>
   <v type="int" >       12        5       10       10       11 </v>
   <v type="int" >       12        4        5       10       10 </v>
   <v type="int" >       12        4        4        5       10 </v>
   <v type="int" >       12        5       10       11       11 </v>
   <v type="int" >       12        5        5       10       11 </v>
   <v type="int" >       12        4        5        5       10 </v>
   <v type="int" >       12        6       11       11       12 </v>
   <v type="int" >       12        5        6       11       11 </v>
   <v type="int" >       12        5        5        6       11 </v>
   <v type="int" >       12        6       11       12       12 </v>
   <v type="int" >       12        6        6       11       12 </v>
   <v type="int" >       12        5        6        6       11 </v>
   <v type="int" >       12        7       12       12       12 </v>
   <v type="int" >       12        6        7       12       12 </v>
   <v type="int" >       12        6        6        7       12 </v>
   <v type="int" >        6        7        7       12       12 </v>
   <v type="int" >       12        6        7        7       12 </v>
   <v type="int" >       12        9        9        9       13 </v>
   <v type="int" >       12        8        9        9        9 </v>
   <v type="int" >        6        8        8        9        9 </v>
   <v type="int" >        6        9        9       13       13 </v>
   <v type="int" >       12       10       13       13       14 </v>
   <v type="int" >       12        9       10       13       13 </v>
   <v type="int" >       12        9        9       10       13 </v>
   <v type="int" >       12       10       13       14       14 </v>
   <v type="int" >       12       10       10       13       14 </v>
   <v type="int" >       12        9       10       10       13 </v>
   <v type="int" >       12       11       14       14       15 </v>
   <v type="int" >       12       10       11       14       14 </v>
   <v type="int" >       12       10       10       11       14 </v>
   <v type="int" >       12       11       14       15       15 </v>
   <v type="int" >       12       11       11       14       15 </v>
   <v type="int" >       12       10       11       11       14 </v>
   <v type="int" >       12       12       15       15       16 </v>
   <v type="int" >       12       11       12       15       15 </v>
   <v type="int" >       12       11       11       12       15 </v>
   <v type="int" >       12       12       15       16       16 </v>
   <v type="int" >       12       12       12       15       16 </v>
   <v type="int" >       12       11       12       12       15 </v>
   <v type="int" >        6       12       12       16       16 </v>
   <v type="int" >       12       12       12       12       16 </v>
   <v type="int" >       12       14       14       14       17 </v>
   <v type="int" >       12       13       14       14       14 </v>
   <v type="int" >        6       13       13       14       14 </v>
   <v type="int" >        6       14       14       17       17 </v>
   <v type="int" >       12       15       17       17       18 </v>
   <v type="int" >       12       14       15       17       17 </v>
   <v type="int" >       12       14       14       15       17 </v>
   <v type="int" >       12       15       17       18       18 </v>
   <v type="int" >       12       15       15       17       18 </v>
   <v type="int" >       12       14       15       15       17 </v>
   <v type="int" >       12       16       18       18       18 </v>
   <v type="int" >       12       15       16       18       18 </v>
   <v type="int" >       12       15       15       16       18 </v>
   <v type="int" >        6       16       16       18       18 </v>
   <v type="int" >       12       15       16       16       18 </v>
   <v type="int" >       24       18       18       18       19 </v>
   <v type="int" >       12       17       18       18       18 </v>
   <v type="int" >        6       17       17       18       18 </v>
   <v type="int" >       12       18       18       19       19 </v>
  </varray>
  <i name="volumeweight">      0.00115741 </i>
 </kpoints>
 <parameters>
  <separator name="general" >
   <i type="string" name="SYSTEM">BC3</i>
   <i type="logical" name="LCOMPAT"> F  </i>
  </separator>
  <separator name="electronic" >
   <i type="string" name="PREC">accura</i>
   <i name="ENMAX">    450.00000000</i>
   <i name="ENAUG">    644.87300000</i>
   <i name="EDIFF">      0.00000100</i>
   <i type="int" name="IALGO">    38</i>
   <i type="int" name="IWAVPR">    10</i>
   <i type="int" name="NBANDS">    24</i>
   <i name="NELECT">     30.00000000</i>
   <i type="int" name="TURBO">     0</i>
   <i type="int" name="IRESTART">     0</i>
   <i type="int" name="NREBOOT">     0</i>
   <i type="int" name="NMIN">     0</i>
   <i name="EREF">      0.00000000</i>
   <separator name="electronic smearing" >
    <i type="int" name="ISMEAR">    -5</i>
    <i name="SIGMA">      0.10000000</i>
    <i name="KSPACING">      0.50000000</i>
    <i type="logical" name="KGAMMA"> T  </i>
   </separator>
   <separator name="electronic projectors" >
    <i type="logical" name="LREAL"> F  </i>
    <v name="ROPT">      0.00000000      0.00000000</v>
    <i type="int" name="LMAXPAW">  -100</i>
    <i type="int" name="LMAXMIX">     2</i>
    <i type="logical" name="NLSPLINE"> F  </i>
   </separator>
   <separator name="electronic startup" >
    <i type="int" name="ISTART">     0</i>
    <i type="int" name="ICHARG">    11</i>
    <i type="int" name="INIWAV">     1</i>
   </separator>
   <separator name="electronic spin" >
    <i type="int" name="ISPIN">     1</i>
    <i type="logical" name="LNONCOLLINEAR"> F  </i>
    <v name="MAGMOM">      1.00000000      1.00000000      1.00000000      1.00000000      1.00000000      1.00000000      1.00000000      1.00000000</v>
    <i name="NUPDOWN">     -1.00000000</i>
    <i type="logical" name="LSORBIT"> F  </i>
    <v name="SAXIS">      0.00000000      0.00000000      1.00000000</v>
    <i type="logical" name="LSPIRAL"> F  </i>
    <v name="QSPIRAL">      0.00000000      0.00000000      0.00000000</v>
    <i type="logical" name="LZEROZ"> F  </i>
   </separator>
   <separator name="electronic exchange-correlation" >
    <i type="logical" name="LASPH"> F  </i>
    <i type="logical" name="LMETAGGA"> F  </i>
   </separator>
   <separator name="electronic convergence" >
    <i type="int" name="NELM">    60</i>
    <i type="int" name="NELMDL">     0</i>
    <i type="int" name="NELMIN">     2</i>
    <i name="ENINI">    450.00000000</i>
    <separator name="electronic convergence detail" >
     <i type="logical" name="LDIAG"> T  </i>
     <i type="logical" name="LSUBROT"> F  </i>
     <i name="WEIMIN">      0.00000000</i>
     <i name="EBREAK">      0.00000001</i>
     <i name="DEPER">      0.30000000</i>
     <i type="int" name="NRMM">     4</i>
     <i name="TIME">      0.40000000</i>
    </separator>
   </separator>
   <separator name="electronic mixer" >
    <i name="AMIX">      0.40000000</i>
    <i name="BMIX">      1.00000000</i>
    <i name="AMIN">      0.10000000</i>
    <i name="AMIX_MAG">      1.60000000</i>
    <i name="BMIX_MAG">      1.00000000</i>
    <separator name="electronic mixer details" >
     <i type="int" name="IMIX">     4</i>
     <i type="logical" name="MIXFIRST"> F  </i>
     <i type="int" name="MAXMIX">   -45</i>
     <i name="WC">    100.00000000</i>
     <i type="int" name="INIMIX">     1</i>
     <i type="int" name="MIXPRE">     1</i>
     <i type="int" name="MREMOVE">     5</i>
    </separator>
   </separator>
   <separator name="electronic dipolcorrection" >
    <i type="logical" name="LDIPOL"> F  </i>
    <i type="logical" name="LMONO"> F  </i>
    <i type="int" name="IDIPOL">     0</i>
    <i name="EPSILON">      1.00000000</i>
    <v name="DIPOL">   -100.00000000   -100.00000000   -100.00000000</v>
    <i name="EFIELD">      0.00000000</i>
   </separator>
  </separator>
  <separator name="grids" >
   <i type="int" name="NGX">    36</i>
   <i type="int" name="NGY">    36</i>
   <i type="int" name="NGZ">    60</i>
   <i type="int" name="NGXF">    72</i>
   <i type="int" name="NGYF">    72</i>
   <i type="int" name="NGZF">   120</i>
   <i type="logical" name="ADDGRID"> F  </i>
  </separator>
  <separator name="ionic" >
   <i type="int" name="NSW">     0</i>
   <i type="int" name="IBRION">    -1</i>
   <i type="int" name="MDALGO">     0</i>
   <i type="int" name="ISIF">     2</i>
   <i name="PSTRESS">      0.00000000</i>
   <i name="EDIFFG">     -0.00100000</i>
   <i type="int" name="NFREE">     0</i>
   <i name="POTIM">      0.50000000</i>
   <i name="SMASS">     -3.00000000</i>
   <i name="SCALEE">      1.00000000</i>
  </separator>
  <separator name="ionic md" >
   <i name="TEBEG">      0.00010000</i>
   <i name="TEEND">      0.00010000</i>
   <i type="int" name="NBLOCK">     1</i>
   <i type="int" name="KBLOCK">     1</i>
   <i type="int" name="NPACO">   256</i>
   <i name="APACO">     16.00000000</i>
  </separator>
  <separator name="symmetry" >
   <i type="int" name="ISYM">     2</i>
   <i name="SYMPREC">      0.00001000</i>
  </separator>
  <separator name="dos" >
   <i type="int" name="LORBIT">    11</i>
   <v name="RWIGS">     -1.00000000     -1.00000000</v>
   <i type="int" name="NEDOS">  1000</i>
   <i name="EMIN">     10.00000000</i>
   <i name="EMAX">    -10.00000000</i>
   <i name="EFERMI">      0.00000000</i>
  </separator>
  <separator name="writing" >
   <i type="int" name="NWRITE">     2</i>
   <i type="logical" name="LWAVE"> T  </i>
   <i type="logical" name="LDOWNSAMPLE"> F  </i>
   <i type="logical" name="LCHARG"> T  </i>
   <i type="logical" name="LPARD"> F  </i>
   <i type="logical" name="LVTOT"> F  </i>
   <i type="logical" name="LVHAR"> F  </i>
   <i type="logical" name="LELF"> F  </i>
   <i type="logical" name="LOPTICS"> F  </i>
   <v name="STM">      0.00000000      0.00000000      0.00000000      0.00000000      0.00000000      0.00000000      0.00000000</v>
  </separator>
  <separator name="performance" >
   <i type="int" name="NPAR">    12</i>
   <i type="int" name="NSIM">     4</i>
   <i type="int" name="NBLK">    -1</i>
   <i type="logical" name="LPLANE"> T  </i>
   <i type="logical" name="LSCALAPACK"> T  </i>
   <i type="logical" name="LSCAAWARE"> F  </i>
   <i type="logical" name="LSCALU"> F  </i>
   <i type="logical" name="LASYNC"> F  </i>
   <i type="logical" name="LORBITALREAL"> F  </i>
  </separator>
  <separator name="miscellaneous" >
   <i type="int" name="IDIOT">     3</i>
   <i type="int" name="ISPECIAL">     0</i>
   <i type="logical" name="LMUSIC"> F  </i>
   <v name="POMASS">     10.81100000     12.01100000</v>
   <v name="DARWINR">      0.00000000      0.00000000</v>
   <v name="DARWINV">      1.00000000      1.00000000</v>
   <i type="logical" name="LCORR"> T  </i>
  </separator>
  <i type="logical" name="GGA_COMPAT"> T  </i>
  <i type="logical" name="LBERRY"> F  </i>
  <i type="int" name="ICORELEVEL">     0</i>
  <i type="logical" name="LDAU"> F  </i>
  <i type="int" name="I_CONSTRAINED_M">     0</i>
  <separator name="electronic exchange-correlation" >
   <i type="string" name="GGA">--</i>
   <i type="int" name="VOSKOWN">     0</i>
   <i type="logical" name="LHFCALC"> F  </i>
   <i type="string" name="PRECFOCK"></i>
   <i type="logical" name="LSYMGRAD"> F  </i>
   <i type="logical" name="LHFONE"> F  </i>
   <i type="logical" name="LRHFCALC"> F  </i>
   <i type="logical" name="LTHOMAS"> F  </i>
   <i type="logical" name="LMODELHF"> F  </i>
   <i name="ENCUT4O">     -1.00000000</i>
   <i type="int" name="EXXOEP">     0</i>
   <i type="int" name="FOURORBIT">     0</i>
   <i name="AEXX">      0.00000000</i>
   <i name="HFALPHA">      0.00000000</i>
   <i name="MCALPHA">      0.00000000</i>
   <i name="ALDAX">      1.00000000</i>
   <i name="AGGAX">      1.00000000</i>
   <i name="ALDAC">      1.00000000</i>
   <i name="AGGAC">      1.00000000</i>
   <i type="int" name="NKREDX">     1</i>
   <i type="int" name="NKREDY">     1</i>
   <i type="int" name="NKREDZ">     1</i>
   <i type="logical" name="SHIFTRED"> F  </i>
   <i type="logical" name="ODDONLY"> F  </i>
   <i type="logical" name="EVENONLY"> F  </i>
   <i type="int" name="LMAXFOCK">     0</i>
   <i type="int" name="NMAXFOCKAE">     0</i>
   <i type="logical" name="LFOCKAEDFT"> F  </i>
   <i name="HFSCREEN">      0.00000000</i>
   <i name="HFSCREENC">      0.00000000</i>
   <i type="int" name="NBANDSGWLOW">     0</i>
  </separator>
  <separator name="vdW DFT" >
   <i type="logical" name="LUSE_VDW"> F  </i>
   <i name="Zab_VDW">     -0.84910000</i>
   <i name="PARAM1">      0.12340000</i>
   <i name="PARAM2">      1.00000000</i>
   <i name="PARAM3">      0.00000000</i>
  </separator>
  <separator name="model GW" >
   <i type="int" name="MODEL_GW">     0</i>
   <i name="MODEL_EPS0">     14.81501129</i>
   <i name="MODEL_ALPHA">      1.00000000</i>
  </separator>
  <separator name="linear response parameters" >
   <i type="logical" name="LEPSILON"> F  </i>
   <i type="logical" name="LRPA"> F  </i>
   <i type="logical" name="LNABLA"> F  </i>
   <i type="logical" name="LVEL"> F  </i>
   <i type="int" name="KINTER">     0</i>
   <i name="CSHIFT">      0.10000000</i>
   <i name="OMEGAMAX">     -1.00000000</i>
   <i name="DEG_THRESHOLD">      0.00200000</i>
   <i name="RTIME">     -0.10000000</i>
   <i name="WPLASMAI">      0.00000000</i>
   <v name="DFIELD">      0.00000000      0.00000000      0.00000000</v>
   <v name="WPLASMA">      0.00000000      0.00000000      0.00000000      0.00000000      0.00000000      0.00000000      0.00000000      0.00000000      0.00000000</v>
  </separator>
  <separator name="orbital magnetization" >
   <i type="logical" name="NUCIND"> F  </i>
   <v name="MAGPOS">      0.00000000      0.00000000      0.00000000</v>
   <i type="logical" name="LNICSALL"> T  </i>
   <i type="logical" name="ORBITALMAG"> F  </i>
   <i type="logical" name="LMAGBLOCH"> F  </i>
   <i type="logical" name="LCHIMAG"> F  </i>
   <i type="logical" name="LGAUGE"> T  </i>
   <i type="int" name="MAGATOM">     0</i>
   <v name="MAGDIPOL">      0.00000000      0.00000000      0.00000000</v>
   <v name="AVECCONST">      0.00000000      0.00000000      0.00000000</v>
  </separator>
  <separator name="response functions" >
   <i type="logical" name="LADDER"> F  </i>
   <i type="logical" name="LRPAFORCE"> F  </i>
   <i type="logical" name="LFXC"> F  </i>
   <i type="logical" name="LHARTREE"> T  </i>
   <i type="int" name="IBSE">     0</i>
   <v type="int" name="KPOINT">    -1     0     0     0</v>
   <i type="logical" name="LTCTE"> F  </i>
   <i type="logical" name="LTETE"> F  </i>
   <i type="logical" name="LTRIPLET"> F  </i>
   <i type="logical" name="LFXCEPS"> F  </i>
   <i type="logical" name="LFXHEG"> F  </i>
   <i type="int" name="NATURALO">     2</i>
   <i type="logical" name="L2ORDER"> F  </i>
   <i type="logical" name="LMP2LT"> F  </i>
   <i type="logical" name="LUSEW"> F  </i>
   <i name="ENCUTGW">     -2.00000000</i>
   <i name="ENCUTGWSOFT">     -2.00000000</i>
   <i name="ENCUTLF">     -1.00000000</i>
   <i type="int" name="LMAXMP2">    -1</i>
   <i name="SCISSOR">      0.00000000</i>
   <i type="int" name="NOMEGA">     0</i>
   <i type="int" name="NOMEGAR">     0</i>
   <i type="int" name="NBANDSGW">    -1</i>
   <i type="int" name="NBANDSO">    -1</i>
   <i type="int" name="NBANDSV">    -1</i>
   <i type="int" name="NELM">     1</i>
   <i type="int" name="NELMHF">     1</i>
   <i type="int" name="DIM">     3</i>
   <i type="int" name="ANTIRES">     0</i>
   <i name="OMEGAMAX">    -30.00000000</i>
   <i name="OMEGAMIN">    -30.00000000</i>
   <i name="OMEGATL">   -200.00000000</i>
   <i type="int" name="OMEGAGRID">   140</i>
   <i name="CSHIFT">     -0.10000000</i>
   <i type="logical" name="SELFENERGY"> F  </i>
   <i type="logical" name="LSPECTRAL"> F  </i>
   <i type="logical" name="LSPECTRALGW"> F  </i>
   <i type="logical" name="LSINGLES"> F  </i>
   <i type="logical" name="LFERMIGW"> F  </i>
   <i type="logical" name="ODDONLYGW"> F  </i>
   <i type="logical" name="EVENONLYGW"> F  </i>
   <i type="int" name="NKREDLFX">     1</i>
   <i type="int" name="NKREDLFY">     1</i>
   <i type="int" name="NKREDLFZ">     1</i>
   <i type="int" name="MAXMEM">  2800</i>
   <i type="int" name="TELESCOPE">     0</i>
   <i type="int" name="TAUPAR">     1</i>
   <i type="int" name="OMEGAPAR">    -1</i>
   <i name="LAMBDA">      1.00000000</i>
  </separator>
  <separator name="External order field" >
   <i name="OFIELD_KAPPA">      0.00000000</i>
   <v name="OFIELD_K">      0.00000000      0.00000000      0.00000000</v>
   <i name="OFIELD_Q6_NEAR">      0.00000000</i>
   <i name="OFIELD_Q6_FAR">      0.00000000</i>
   <i name="OFIELD_A">      0.00000000</i>
  </separator>
 </parameters>
 <atominfo>
  <atoms>       8 </atoms>
  <types>       2 </types>
  <array name="atoms" >
   <dimension dim="1">ion</dimension>
   <field type="string">element</field>
   <field type="int">atomtype</field>
   <set>
    <rc><c>B </c><c>   1</c></rc>
    <rc><c>B </c><c>   1</c></rc>
    <rc><c>C </c><c>   2</c></rc>
    <rc><c>C </c><c>   2</c></rc>
    <rc><c>C </c><c>   2</c></rc>
    <rc><c>C </c><c>   2</c></rc>
    <rc><c>C </c><c>   2</c></rc>
    <rc><c>C </c><c>   2</c></rc>
   </set>
  </array>
  <array name="atomtypes" >
   <dimension dim="1">type</dimension>
   <field type="int">atomspertype</field>
   <field type="string">element</field>
   <field>mass</field>
   <field>valence</field>
   <field type="string">pseudopotential</field>
   <set>
    <rc><c>   2</c><c>B </c><c>     10.81100000</c><c>      3.00000000</c><c>  PAW_PBE B 06Sep2000                   </c></rc>
    <rc><c>   6</c><c>C </c><c>     12.01100000</c><c>      4.00000000</c><c>  PAW_PBE C 08Apr2002                   </c></rc>
   </set>
  </array>
 </atominfo>
 <structure name="initialpos" >
  <crystal>
   <varray name="basis" >
    <v>       4.48084843       2.58701885       0.00000000 </v>
    <v>      -4.48084843       2.58701885       0.00000000 </v>
    <v>       0.00000000       0.00000000       8.52022140 </v>
   </varray>
   <i name="volume">    197.53348383 </i>
   <varray name="rec_basis" >
    <v>       0.11158601       0.19327265       0.00000000 </v>
    <v>      -0.11158601       0.19327265       0.00000000 </v>
    <v>       0.00000000       0.00000000       0.11736784 </v>
   </varray>
  </crystal>
  <varray name="positions" >
   <v>       0.33333300       0.66666600       0.25000000 </v>
   <v>       0.66666600       0.33333300       0.25000000 </v>
   <v>       0.15869124       0.31738348       0.25000000 </v>
   <v>       0.31738348       0.15869124       0.25000000 </v>
   <v>       0.15869124       0.84130776       0.25000000 </v>
   <v>       0.84130776       0.15869124       0.25000000 </v>
   <v>       0.68261552       0.84130776       0.25000000 </v>
   <v>       0.84130776       0.68261552       0.25000000 </v>
  </varray>
 </structure>
 <calculation>
  <scstep>
   <time name="dav">    0.58    0.58</time>
   <time name="total">    0.62    0.62</time>
   <energy>
    <i name="alphaZ">     25.67921176 </i>
    <i name="ewald">    700.27145080 </i>
    <i name="hartreedc">  -1646.75232089 </i>
    <i name="XCdc">     96.02424716 </i>
    <i name="pawpsdc">   2894.38173162 </i>
    <i name="pawaedc">  -2896.90894473 </i>
    <i name="eentropy">      0.00000000 </i>
    <i name="bandstr">    -66.95595669 </i>
    <i name="atom">   1025.20389953 </i>
    <i name="e_fr_energy">    130.94331854 </i>
    <i name="e_wo_entrp">    130.94331854 </i>
    <i name="e_0_energy">    130.94331854 </i>
   </energy>
  </scstep>
  <scstep>
   <time name="dav">    0.73    0.91</time>
   <time name="total">    0.73    0.91</time>
   <energy>
    <i name="e_fr_energy">    -50.44332802 </i>
    <i name="e_wo_entrp">    -50.44332802 </i>
    <i name="e_0_energy">    -50.44332802 </i>
   </energy>
  </scstep>
  <scstep>
   <time name="dav">    0.65    0.65</time>
   <time name="total">    0.65    0.65</time>
   <energy>
    <i name="e_fr_energy">    -66.93150031 </i>
    <i name="e_wo_entrp">    -66.93150031 </i>
    <i name="e_0_energy">    -66.93150031 </i>
   </energy>
  </scstep>
  <scstep>
   <time name="dav">    0.73    0.73</time>
   <time name="total">    0.73    0.73</time>
   <energy>
    <i name="e_fr_energy">    -67.22044436 </i>
    <i name="e_wo_entrp">    -67.22044436 </i>
    <i name="e_0_energy">    -67.22044436 </i>
   </energy>
  </scstep>
  <scstep>
   <time name="dav">    0.71    0.71</time>
   <time name="total">    0.71    0.71</time>
   <energy>
    <i name="e_fr_energy">    -67.22742623 </i>
    <i name="e_wo_entrp">    -67.22742623 </i>
    <i name="e_0_energy">    -67.22742623 </i>
   </energy>
  </scstep>
  <scstep>
   <time name="dav">    0.80    0.80</time>
   <time name="total">    0.80    0.80</time>
   <energy>
    <i name="e_fr_energy">    -67.22772388 </i>
    <i name="e_wo_entrp">    -67.22772388 </i>
    <i name="e_0_energy">    -67.22772388 </i>
   </energy>
  </scstep>
  <scstep>
   <time name="dav">    0.76    0.76</time>
   <time name="total">    0.76    0.76</time>
   <energy>
    <i name="e_fr_energy">    -67.22773012 </i>
    <i name="e_wo_entrp">    -67.22773012 </i>
    <i name="e_0_energy">    -67.22773012 </i>
   </energy>
  </scstep>
  <scstep>
   <time name="dav">    0.65    0.65</time>
   <time name="total">    0.65    0.65</time>
   <energy>
    <i name="alphaZ">     25.67921176 </i>
    <i name="ewald">    700.27145080 </i>
    <i name="hartreedc">  -1646.75232089 </i>
    <i name="XCdc">     96.02424716 </i>
    <i name="pawpsdc">   2894.38173162 </i>
    <i name="pawaedc">  -2896.90894473 </i>
    <i name="eentropy">      0.00000000 </i>
    <i name="bandstr">   -265.12700548 </i>
    <i name="atom">   1025.20389953 </i>
    <i name="e_fr_energy">    -67.22773024 </i>
    <i name="e_wo_entrp">    -67.22773024 </i>
    <i name="e_0_energy">    -67.22773024 </i>
   </energy>
  </scstep>
  <structure>
   <crystal>
    <varray name="basis" >
     <v>       4.48084843       2.58701885       0.00000000 </v>
     <v>      -4.48084843       2.58701885       0.00000000 </v>
     <v>       0.00000000       0.00000000       8.52022140 </v>
    </varray>
    <i name="volume">    197.53348383 </i>
    <varray name="rec_basis" >
     <v>       0.11158601       0.19327265       0.00000000 </v>
     <v>      -0.11158601       0.19327265       0.00000000 </v>
     <v>       0.00000000       0.00000000       0.11736784 </v>
    </varray>
   </crystal>
   <varray name="positions" >
    <v>       0.33333300       0.66666600       0.25000000 </v>
    <v>       0.66666600       0.33333300       0.25000000 </v>
    <v>       0.15869124       0.31738348       0.25000000 </v>
    <v>       0.31738348       0.15869124       0.25000000 </v>
    <v>       0.15869124       0.84130776       0.25000000 </v>
    <v>       0.84130776       0.15869124       0.25000000 </v>
    <v>       0.68261552       0.84130776       0.25000000 </v>
    <v>       0.84130776       0.68261552       0.25000000 </v>
   </varray>
  </structure>
  <varray name="forces" >
   <v>       0.00000000       0.00000000      -0.00000000 </v>
   <v>      -0.00000000       0.00000000      -0.00000000 </v>
   <v>      -0.00054242       0.00093949      -0.00000000 </v>
   <v>       0.00054242       0.00093949      -0.00000000 </v>
   <v>       0.00108483      -0.00000000       0.00000000 </v>
   <v>      -0.00108483      -0.00000000      -0.00000000 </v>
   <v>      -0.00054242      -0.00093949       0.00000000 </v>
   <v>       0.00054242      -0.00093949       0.00000000 </v>
  </varray>
  <varray name="stress" >
   <v>      -0.53051247       0.00000000      -0.00000000 </v>
   <v>       0.00000000      -0.53051239       0.00000000 </v>
   <v>       0.00000000       0.00000000      -1.26627553 </v>
  </varray>
  <energy>
   <i name="e_fr_energy">    -67.22773024 </i>
   <i name="e_wo_entrp">    -67.22773024 </i>
   <i name="e_0_energy">      0.00000000 </i>
  </energy>
  <time name="totalsc">    7.32    7.79</time>
  <eigenvalues>
   <array>
    <dimension dim="1">band</dimension>
    <dimension dim="2">kpoint</dimension>
    <dimension dim="3">spin</dimension>
    <field>eigene</field>
    <field>occ</field>
    <set>
     <set comment="spin 1">
      <set comment="kpoint 1">
       <r>  -18.5404    1.0000 </r>
       <r>  -14.6489    1.0000 </r>
       <r>  -14.6488    1.0000 </r>
       <r>  -12.2992    1.0000 </r>
       <r>  -12.2992    1.0000 </r>
       <r>  -11.2307    1.0000 </r>
       <r>   -9.9135    1.0000 </r>
       <r>   -7.3452    1.0000 </r>
       <r>   -7.1249    1.0000 </r>
       <r>   -4.9710    1.0000 </r>
       <r>   -4.9710    1.0000 </r>
       <r>   -3.1493    1.0000 </r>
       <r>   -3.1493    1.0000 </r>
       <r>   -2.4667    1.0000 </r>
       <r>   -2.4666    1.0000 </r>
       <r>   -0.6314    0.0000 </r>
       <r>    1.1011    0.0000 </r>
       <r>    1.1012    0.0000 </r>
       <r>    1.7906    0.0000 </r>
       <r>    1.9212    0.0000 </r>
       <r>    4.5207    0.0000 </r>
       <r>    5.9119    0.0000 </r>
       <r>    6.3151    0.0000 </r>
       <r>    6.3151    0.0000 </r>
      </set>
      <set comment="kpoint 2">
       <r>  -18.5133    1.0000 </r>
       <r>  -14.7810    1.0000 </r>
       <r>  -14.6912    1.0000 </r>
       <r>  -12.3384    1.0000 </r>
       <r>  -12.2008    1.0000 </r>
       <r>  -11.0962    1.0000 </r>
       <r>   -9.7531    1.0000 </r>
       <r>   -7.3040    1.0000 </r>
       <r>   -7.1822    1.0000 </r>
       <r>   -5.0944    1.0000 </r>
       <r>   -4.9934    1.0000 </r>
       <r>   -3.2738    1.0000 </r>
       <r>   -3.1697    1.0000 </r>
       <r>   -2.6092    1.0000 </r>
       <r>   -2.5354    1.0000 </r>
       <r>   -0.8361    0.0000 </r>
       <r>    1.1604    0.0000 </r>
       <r>    1.4115    0.0000 </r>
       <r>    1.9153    0.0000 </r>
       <r>    1.9730    0.0000 </r>
       <r>    4.5728    0.0000 </r>
       <r>    5.9681    0.0000 </r>
       <r>    6.3866    0.0000 </r>
       <r>    6.4781    0.0000 </r>
      </set>
      <set comment="kpoint 3">
       <r>  -18.4342    1.0000 </r>
       <r>  -15.1060    1.0000 </r>
       <r>  -14.7955    1.0000 </r>
       <r>  -12.4549    1.0000 </r>
       <r>  -11.9317    1.0000 </r>
       <r>  -10.7149    1.0000 </r>
       <r>   -9.3237    1.0000 </r>
       <r>   -7.3646    1.0000 </r>
       <r>   -7.1816    1.0000 </r>
       <r>   -5.4404    1.0000 </r>
       <r>   -5.0296    1.0000 </r>
       <r>   -3.6157    1.0000 </r>
       <r>   -3.2240    1.0000 </r>
       <r>   -3.0165    1.0000 </r>
       <r>   -2.7272    1.0000 </r>
       <r>   -1.1839    0.0000 </r>
       <r>    1.3238    0.0000 </r>
       <r>    1.8881    0.0000 </r>
       <r>    2.1277    0.0000 </r>
       <r>    2.4358    0.0000 </r>
       <r>    4.7294    0.0000 </r>
       <r>    6.1230    0.0000 </r>
       <r>    6.5551    0.0000 </r>
       <r>    6.9594    0.0000 </r>
      </set>
      <set comment="kpoint 4">
       <r>  -18.3112    1.0000 </r>
       <r>  -15.5025    1.0000 </r>
       <r>  -14.9178    1.0000 </r>
       <r>  -12.6026    1.0000 </r>
       <r>  -11.5471    1.0000 </r>
       <r>  -10.1724    1.0000 </r>
       <r>   -8.7139    1.0000 </r>
       <r>   -7.6783    1.0000 </r>
       <r>   -6.9823    1.0000 </r>
       <r>   -5.9473    1.0000 </r>
       <r>   -5.0208    1.0000 </r>
       <r>   -4.0930    1.0000 </r>
       <r>   -3.6340    1.0000 </r>
       <r>   -3.2942    1.0000 </r>
       <r>   -3.0028    1.0000 </r>
       <r>   -1.4707    0.0000 </r>
       <r>    1.5522    0.0000 </r>
       <r>    2.2445    0.0000 </r>
       <r>    2.3845    0.0000 </r>
       <r>    3.3190    0.0000 </r>
       <r>    4.9927    0.0000 </r>
       <r>    6.0206    0.0000 </r>
       <r>    6.3575    0.0000 </r>
       <r>    6.7510    0.0000 </r>
      </set>
      <set comment="kpoint 5">
       <r>  -18.1626    1.0000 </r>
       <r>  -15.8798    1.0000 </r>
       <r>  -15.0239    1.0000 </r>
       <r>  -12.7316    1.0000 </r>
       <r>  -11.1092    1.0000 </r>
       <r>   -9.5492    1.0000 </r>
       <r>   -8.0852    1.0000 </r>
       <r>   -8.0108    1.0000 </r>
       <r>   -6.7177    1.0000 </r>
       <r>   -6.5247    1.0000 </r>
       <r>   -4.9417    1.0000 </r>
       <r>   -4.6103    1.0000 </r>
       <r>   -4.3954    1.0000 </r>
       <r>   -3.3602    1.0000 </r>
       <r>   -3.3072    1.0000 </r>
       <r>   -1.6689    0.0000 </r>
       <r>    1.7888    0.0000 </r>
       <r>    2.5685    0.0000 </r>
       <r>    2.7425    0.0000 </r>
       <r>    4.2903    0.0000 </r>
       <r>    5.1734    0.0000 </r>
       <r>    5.3723    0.0000 </r>
       <r>    6.6294    0.0000 </r>
       <r>    6.9215    0.0000 </r>
      </set>
      <set comment="kpoint 6">
       <r>  -18.0273    1.0000 </r>
       <r>  -16.1629    1.0000 </r>
       <r>  -15.0940    1.0000 </r>
       <r>  -12.8160    1.0000 </r>
       <r>  -10.7080    1.0000 </r>
       <r>   -8.9042    1.0000 </r>
       <r>   -8.4816    1.0000 </r>
       <r>   -7.5745    1.0000 </r>
       <r>   -6.7929    1.0000 </r>
       <r>   -6.4253    1.0000 </r>
       <r>   -5.2343    1.0000 </r>
       <r>   -5.0733    1.0000 </r>
       <r>   -4.8255    1.0000 </r>
       <r>   -3.5685    1.0000 </r>
       <r>   -3.4063    1.0000 </r>
       <r>   -1.7847    0.0000 </r>
       <r>    1.9691    0.0000 </r>
       <r>    2.8120    0.0000 </r>
       <r>    3.2012    0.0000 </r>
       <r>    4.4180    0.0000 </r>
       <r>    5.2007    0.0000 </r>
       <r>    5.8937    0.0000 </r>
       <r>    6.7443    0.0000 </r>
       <r>    6.7975    0.0000 </r>
      </set>
      <set comment="kpoint 7">
       <r>  -17.9688    1.0000 </r>
       <r>  -16.2722    1.0000 </r>
       <r>  -15.1183    1.0000 </r>
       <r>  -12.8452    1.0000 </r>
       <r>  -10.5233    1.0000 </r>
       <r>   -8.6674    1.0000 </r>
       <r>   -8.4603    1.0000 </r>
       <r>   -7.8540    1.0000 </r>
       <r>   -6.2579    1.0000 </r>
       <r>   -6.2284    1.0000 </r>
       <r>   -5.9751    1.0000 </r>
       <r>   -5.3004    1.0000 </r>
       <r>   -4.7630    1.0000 </r>
       <r>   -3.6806    1.0000 </r>
       <r>   -3.4228    1.0000 </r>
       <r>   -1.8228    0.0000 </r>
       <r>    2.0368    0.0000 </r>
       <r>    2.9042    0.0000 </r>
       <r>    3.7584    0.0000 </r>
       <r>    3.7615    0.0000 </r>
       <r>    5.8295    0.0000 </r>
       <r>    6.0178    0.0000 </r>
       <r>    6.6844    0.0000 </r>
       <r>    6.8331    0.0000 </r>
      </set>
      <set comment="kpoint 8">
       <r>  -18.4602    1.0000 </r>
       <r>  -14.9944    1.0000 </r>
       <r>  -14.7809    1.0000 </r>
       <r>  -12.3670    1.0000 </r>
       <r>  -12.0744    1.0000 </r>
       <r>  -10.8256    1.0000 </r>
       <r>   -9.4615    1.0000 </r>
       <r>   -7.3045    1.0000 </r>
       <r>   -7.2222    1.0000 </r>
       <r>   -5.3045    1.0000 </r>
       <r>   -5.0454    1.0000 </r>
       <r>   -3.4865    1.0000 </r>
       <r>   -3.2340    1.0000 </r>
       <r>   -2.8750    1.0000 </r>
       <r>   -2.6748    1.0000 </r>
       <r>   -1.0764    0.0000 </r>
       <r>    1.1928    0.0000 </r>
       <r>    1.9201    0.0000 </r>
       <r>    2.0762    0.0000 </r>
       <r>    2.1721    0.0000 </r>
       <r>    4.6771    0.0000 </r>
       <r>    6.0766    0.0000 </r>
       <r>    6.5380    0.0000 </r>
       <r>    6.7517    0.0000 </r>
      </set>
      <set comment="kpoint 9">
       <r>  -18.3588    1.0000 </r>
       <r>  -15.3297    1.0000 </r>
       <r>  -14.9244    1.0000 </r>
       <r>  -12.4374    1.0000 </r>
       <r>  -11.8221    1.0000 </r>
       <r>  -10.3336    1.0000 </r>
       <r>   -8.9537    1.0000 </r>
       <r>   -7.5669    1.0000 </r>
       <r>   -7.0612    1.0000 </r>
       <r>   -5.6746    1.0000 </r>
       <r>   -5.1027    1.0000 </r>
       <r>   -3.8636    1.0000 </r>
       <r>   -3.3655    1.0000 </r>
       <r>   -3.3565    1.0000 </r>
       <r>   -2.9300    1.0000 </r>
       <r>   -1.3034    0.0000 </r>
       <r>    1.2600    0.0000 </r>
       <r>    2.2820    0.0000 </r>
       <r>    2.4279    0.0000 </r>
       <r>    2.8510    0.0000 </r>
       <r>    4.8861    0.0000 </r>
       <r>    6.2797    0.0000 </r>
       <r>    6.5075    0.0000 </r>
       <r>    6.7724    0.0000 </r>
      </set>
      <set comment="kpoint 10">
       <r>  -18.2216    1.0000 </r>
       <r>  -15.7004    1.0000 </r>
       <r>  -15.0617    1.0000 </r>
       <r>  -12.5469    1.0000 </r>
       <r>  -11.4382    1.0000 </r>
       <r>   -9.7296    1.0000 </r>
       <r>   -8.3073    1.0000 </r>
       <r>   -7.9560    1.0000 </r>
       <r>   -6.8281    1.0000 </r>
       <r>   -6.1688    1.0000 </r>
       <r>   -5.0887    1.0000 </r>
       <r>   -4.3446    1.0000 </r>
       <r>   -4.0291    1.0000 </r>
       <r>   -3.4803    1.0000 </r>
       <r>   -3.2435    1.0000 </r>
       <r>   -1.4533    0.0000 </r>
       <r>    1.3910    0.0000 </r>
       <r>    2.5895    0.0000 </r>
       <r>    2.8067    0.0000 </r>
       <r>    3.7950    0.0000 </r>
       <r>    5.2029    0.0000 </r>
       <r>    5.6247    0.0000 </r>
       <r>    6.5561    0.0000 </r>
       <r>    6.7673    0.0000 </r>
      </set>
      <set comment="kpoint 11">
       <r>  -18.0757    1.0000 </r>
       <r>  -16.0253    1.0000 </r>
       <r>  -15.1634    1.0000 </r>
       <r>  -12.6404    1.0000 </r>
       <r>  -11.0116    1.0000 </r>
       <r>   -9.0961    1.0000 </r>
       <r>   -8.3956    1.0000 </r>
       <r>   -7.6306    1.0000 </r>
       <r>   -6.6685    1.0000 </r>
       <r>   -6.5435    1.0000 </r>
       <r>   -5.0399    1.0000 </r>
       <r>   -4.8340    1.0000 </r>
       <r>   -4.7659    1.0000 </r>
       <r>   -3.5742    1.0000 </r>
       <r>   -3.5495    1.0000 </r>
       <r>   -1.5440    0.0000 </r>
       <r>    1.5375    0.0000 </r>
       <r>    2.9979    0.0000 </r>
       <r>    3.1243    0.0000 </r>
       <r>    4.7554    0.0000 </r>
       <r>    4.8222    0.0000 </r>
       <r>    5.6422    0.0000 </r>
       <r>    6.5799    0.0000 </r>
       <r>    6.9209    0.0000 </r>
      </set>
      <set comment="kpoint 12">
       <r>  -17.9726    1.0000 </r>
       <r>  -16.2237    1.0000 </r>
       <r>  -15.2167    1.0000 </r>
       <r>  -12.6917    1.0000 </r>
       <r>  -10.6841    1.0000 </r>
       <r>   -8.8037    1.0000 </r>
       <r>   -8.4393    1.0000 </r>
       <r>   -7.5709    1.0000 </r>
       <r>   -6.4910    1.0000 </r>
       <r>   -6.2836    1.0000 </r>
       <r>   -5.6651    1.0000 </r>
       <r>   -5.2067    1.0000 </r>
       <r>   -4.8631    1.0000 </r>
       <r>   -3.7590    1.0000 </r>
       <r>   -3.6241    1.0000 </r>
       <r>   -1.5880    0.0000 </r>
       <r>    1.6337    0.0000 </r>
       <r>    3.3120    0.0000 </r>
       <r>    3.5067    0.0000 </r>
       <r>    4.1153    0.0000 </r>
       <r>    5.5886    0.0000 </r>
       <r>    6.1336    0.0000 </r>
       <r>    6.4945    0.0000 </r>
       <r>    6.5321    0.0000 </r>
      </set>
      <set comment="kpoint 13">
       <r>  -18.2424    1.0000 </r>
       <r>  -15.5947    1.0000 </r>
       <r>  -15.1335    1.0000 </r>
       <r>  -12.3267    1.0000 </r>
       <r>  -11.7182    1.0000 </r>
       <r>   -9.7515    1.0000 </r>
       <r>   -8.4235    1.0000 </r>
       <r>   -7.9297    1.0000 </r>
       <r>   -6.8657    1.0000 </r>
       <r>   -5.9215    1.0000 </r>
       <r>   -5.2465    1.0000 </r>
       <r>   -4.1761    1.0000 </r>
       <r>   -3.8606    1.0000 </r>
       <r>   -3.6322    1.0000 </r>
       <r>   -3.2639    1.0000 </r>
       <r>   -1.2839    0.0000 </r>
       <r>    1.1311    0.0000 </r>
       <r>    2.5386    0.0000 </r>
       <r>    3.2334    0.0000 </r>
       <r>    3.3406    0.0000 </r>
       <r>    5.1459    0.0000 </r>
       <r>    6.1564    0.0000 </r>
       <r>    6.1839    0.0000 </r>
       <r>    6.5502    0.0000 </r>
      </set>
      <set comment="kpoint 14">
       <r>  -18.1038    1.0000 </r>
       <r>  -15.8718    1.0000 </r>
       <r>  -15.3171    1.0000 </r>
       <r>  -12.2968    1.0000 </r>
       <r>  -11.4380    1.0000 </r>
       <r>   -9.1205    1.0000 </r>
       <r>   -8.3761    1.0000 </r>
       <r>   -7.7952    1.0000 </r>
       <r>   -6.6081    1.0000 </r>
       <r>   -6.2644    1.0000 </r>
       <r>   -5.3186    1.0000 </r>
       <r>   -4.5716    1.0000 </r>
       <r>   -4.4650    1.0000 </r>
       <r>   -3.8736    1.0000 </r>
       <r>   -3.6394    1.0000 </r>
       <r>   -1.1996    0.0000 </r>
       <r>    1.0639    0.0000 </r>
       <r>    2.8965    0.0000 </r>
       <r>    3.6622    0.0000 </r>
       <r>    4.2506    0.0000 </r>
       <r>    5.3264    0.0000 </r>
       <r>    5.5089    0.0000 </r>
       <r>    5.9257    0.0000 </r>
       <r>    6.8977    0.0000 </r>
      </set>
      <set comment="kpoint 15">
       <r>  -17.9802    1.0000 </r>
       <r>  -16.0976    1.0000 </r>
       <r>  -15.4298    1.0000 </r>
       <r>  -12.3214    1.0000 </r>
       <r>  -11.0772    1.0000 </r>
       <r>   -8.9725    1.0000 </r>
       <r>   -8.3329    1.0000 </r>
       <r>   -7.2613    1.0000 </r>
       <r>   -6.5698    1.0000 </r>
       <r>   -6.3281    1.0000 </r>
       <r>   -5.4537    1.0000 </r>
       <r>   -4.9770    1.0000 </r>
       <r>   -4.9741    1.0000 </r>
       <r>   -4.0100    1.0000 </r>
       <r>   -3.9555    1.0000 </r>
       <r>   -1.1306    0.0000 </r>
       <r>    1.0489    0.0000 </r>
       <r>    3.3553    0.0000 </r>
       <r>    3.9513    0.0000 </r>
       <r>    4.5718    0.0000 </r>
       <r>    5.1717    0.0000 </r>
       <r>    5.7775    0.0000 </r>
       <r>    5.9790    0.0000 </r>
       <r>    6.7565    0.0000 </r>
      </set>
      <set comment="kpoint 16">
       <r>  -17.9278    1.0000 </r>
       <r>  -16.1875    1.0000 </r>
       <r>  -15.4670    1.0000 </r>
       <r>  -12.3351    1.0000 </r>
       <r>  -10.8914    1.0000 </r>
       <r>   -9.1568    1.0000 </r>
       <r>   -7.9544    1.0000 </r>
       <r>   -7.3553    1.0000 </r>
       <r>   -6.2382    1.0000 </r>
       <r>   -6.1731    1.0000 </r>
       <r>   -5.9419    1.0000 </r>
       <r>   -5.1767    1.0000 </r>
       <r>   -5.0349    1.0000 </r>
       <r>   -4.0904    1.0000 </r>
       <r>   -4.0533    1.0000 </r>
       <r>   -1.1062    0.0000 </r>
       <r>    1.0502    0.0000 </r>
       <r>    3.9102    0.0000 </r>
       <r>    3.9178    0.0000 </r>
       <r>    4.0594    0.0000 </r>
       <r>    5.7280    0.0000 </r>
       <r>    5.8797    0.0000 </r>
       <r>    6.0777    0.0000 </r>
       <r>    6.5092    0.0000 </r>
      </set>
      <set comment="kpoint 17">
       <r>  -17.9838    1.0000 </r>
       <r>  -16.0000    1.0000 </r>
       <r>  -15.5660    1.0000 </r>
       <r>  -12.0256    1.0000 </r>
       <r>  -11.3863    1.0000 </r>
       <r>   -9.0296    1.0000 </r>
       <r>   -8.2677    1.0000 </r>
       <r>   -7.2565    1.0000 </r>
       <r>   -6.3795    1.0000 </r>
       <r>   -6.3478    1.0000 </r>
       <r>   -5.5925    1.0000 </r>
       <r>   -4.8681    1.0000 </r>
       <r>   -4.7863    1.0000 </r>
       <r>   -4.2578    1.0000 </r>
       <r>   -4.0964    1.0000 </r>
       <r>   -0.8660    0.0000 </r>
       <r>    0.7476    0.0000 </r>
       <r>    3.3049    0.0000 </r>
       <r>    4.4813    0.0000 </r>
       <r>    4.7155    0.0000 </r>
       <r>    5.1167    0.0000 </r>
       <r>    5.1384    0.0000 </r>
       <r>    5.8980    0.0000 </r>
       <r>    6.9818    0.0000 </r>
      </set>
      <set comment="kpoint 18">
       <r>  -17.9036    1.0000 </r>
       <r>  -16.0734    1.0000 </r>
       <r>  -15.7140    1.0000 </r>
       <r>  -11.9033    1.0000 </r>
       <r>  -11.2357    1.0000 </r>
       <r>   -9.3725    1.0000 </r>
       <r>   -7.6539    1.0000 </r>
       <r>   -6.9970    1.0000 </r>
       <r>   -6.4838    1.0000 </r>
       <r>   -6.1272    1.0000 </r>
       <r>   -5.8404    1.0000 </r>
       <r>   -5.0821    1.0000 </r>
       <r>   -4.9870    1.0000 </r>
       <r>   -4.4628    1.0000 </r>
       <r>   -4.4486    1.0000 </r>
       <r>   -0.6039    0.0000 </r>
       <r>    0.5137    0.0000 </r>
       <r>    3.8135    0.0000 </r>
       <r>    4.4217    0.0000 </r>
       <r>    4.7973    0.0000 </r>
       <r>    5.0281    0.0000 </r>
       <r>    5.4990    0.0000 </r>
       <r>    6.2769    0.0000 </r>
       <r>    6.3566    0.0000 </r>
      </set>
      <set comment="kpoint 19">
       <r>  -17.8741    1.0000 </r>
       <r>  -15.9418    1.0000 </r>
       <r>  -15.9418    1.0000 </r>
       <r>  -11.5104    1.0000 </r>
       <r>  -11.5104    1.0000 </r>
       <r>   -9.5490    1.0000 </r>
       <r>   -7.0492    1.0000 </r>
       <r>   -7.0492    1.0000 </r>
       <r>   -6.6881    1.0000 </r>
       <r>   -6.0399    1.0000 </r>
       <r>   -5.9080    1.0000 </r>
       <r>   -4.8955    1.0000 </r>
       <r>   -4.8955    1.0000 </r>
       <r>   -4.8156    1.0000 </r>
       <r>   -4.8156    1.0000 </r>
       <r>   -0.0438    0.0000 </r>
       <r>   -0.0438    0.0000 </r>
       <r>    4.3564    0.0000 </r>
       <r>    4.3794    0.0000 </r>
       <r>    4.3794    0.0000 </r>
       <r>    5.5697    0.0000 </r>
       <r>    5.5697    0.0000 </r>
       <r>    5.7005    0.0000 </r>
       <r>    6.5546    0.0000 </r>
      </set>
     </set>
    </set>
   </array>
  </eigenvalues>
  <separator name="orbital magnetization" >
   <v name="MAGDIPOLOUT">      0.00000000      0.00000000      0.00000000</v>
  </separator>
  <dos>
   <i name="efermi">     -2.44562243 </i>
   <total>
    <array>
     <dimension dim="1">gridpoints</dimension>
     <dimension dim="2">spin</dimension>
     <field>energy</field>
     <field>total</field>
     <field>integrated</field>
     <set>
      <set comment="spin 1">
       <r>   -19.8165     0.0000     0.0000 </r>
       <r>   -19.7884     0.0000     0.0000 </r>
       <r>   -19.7603     0.0000     0.0000 </r>
       <r>   -19.7322     0.0000     0.0000 </r>
       <r>   -19.7041     0.0000     0.0000 </r>
       <r>   -19.6760     0.0000     0.0000 </r>
       <r>   -19.6479     0.0000     0.0000 </r>
       <r>   -19.6198     0.0000     0.0000 </r>
       <r>   -19.5917     0.0000     0.0000 </r>
       <r>   -19.5636     0.0000     0.0000 </r>
       <r>   -19.5355     0.0000     0.0000 </r>
       <r>   -19.5074     0.0000     0.0000 </r>
       <r>   -19.4793     0.0000     0.0000 </r>
       <r>   -19.4512     0.0000     0.0000 </r>
       <r>   -19.4231     0.0000     0.0000 </r>
       <r>   -19.3950     0.0000     0.0000 </r>
       <r>   -19.3669     0.0000     0.0000 </r>
       <r>   -19.3388     0.0000     0.0000 </r>
       <r>   -19.3107     0.0000     0.0000 </r>
       <r>   -19.2826     0.0000     0.0000 </r>
       <r>   -19.2545     0.0000     0.0000 </r>
       <r>   -19.2264     0.0000     0.0000 </r>
       <r>   -19.1983     0.0000     0.0000 </r>
       <r>   -19.1702     0.0000     0.0000 </r>
       <r>   -19.1420     0.0000     0.0000 </r>
       <r>   -19.1139     0.0000     0.0000 </r>
       <r>   -19.0858     0.0000     0.0000 </r>
       <r>   -19.0577     0.0000     0.0000 </r>
       <r>   -19.0296     0.0000     0.0000 </r>
       <r>   -19.0015     0.0000     0.0000 </r>
       <r>   -18.9734     0.0000     0.0000 </r>
       <r>   -18.9453     0.0000     0.0000 </r>
       <r>   -18.9172     0.0000     0.0000 </r>
       <r>   -18.8891     0.0000     0.0000 </r>
       <r>   -18.8610     0.0000     0.0000 </r>
       <r>   -18.8329     0.0000     0.0000 </r>
       <r>   -18.8048     0.0000     0.0000 </r>
       <r>   -18.7767     0.0000     0.0000 </r>
       <r>   -18.7486     0.0000     0.0000 </r>
       <r>   -18.7205     0.0000     0.0000 </r>
       <r>   -18.6924     0.0000     0.0000 </r>
       <r>   -18.6643     0.0000     0.0000 </r>
       <r>   -18.6362     0.0000     0.0000 </r>
       <r>   -18.6081     0.0000     0.0000 </r>
       <r>   -18.5800     0.0000     0.0000 </r>
       <r>   -18.5519     0.0000     0.0000 </r>
       <r>   -18.5238     1.8829     0.0156 </r>
       <r>   -18.4957     1.7473     0.0708 </r>
       <r>   -18.4676     2.0325     0.1240 </r>
       <r>   -18.4395     1.9059     0.1808 </r>
       <r>   -18.4114     1.9520     0.2342 </r>
       <r>   -18.3833     2.0720     0.2907 </r>
       <r>   -18.3552     2.0754     0.3502 </r>
       <r>   -18.3271     2.1136     0.4091 </r>
       <r>   -18.2990     2.1749     0.4692 </r>
       <r>   -18.2709     2.2661     0.5316 </r>
       <r>   -18.2428     2.3574     0.5965 </r>
       <r>   -18.2147     2.4434     0.6639 </r>
       <r>   -18.1866     2.5606     0.7342 </r>
       <r>   -18.1585     2.6806     0.8078 </r>
       <r>   -18.1304     2.8170     0.8851 </r>
       <r>   -18.1023     3.0607     0.9663 </r>
       <r>   -18.0742     3.4528     1.0578 </r>
       <r>   -18.0460     3.9084     1.1612 </r>
       <r>   -18.0179     4.5002     1.2781 </r>
       <r>   -17.9898     5.3661     1.4167 </r>
       <r>   -17.9617     6.4487     1.6496 </r>
       <r>   -17.9336     4.0571     1.7972 </r>
       <r>   -17.9055     4.4155     1.9082 </r>
       <r>   -17.8774     0.6395     1.9989 </r>
       <r>   -17.8493     0.0000     2.0000 </r>
       <r>   -17.8212     0.0000     2.0000 </r>
       <r>   -17.7931     0.0000     2.0000 </r>
       <r>   -17.7650     0.0000     2.0000 </r>
       <r>   -17.7369     0.0000     2.0000 </r>
       <r>   -17.7088     0.0000     2.0000 </r>
       <r>   -17.6807     0.0000     2.0000 </r>
       <r>   -17.6526     0.0000     2.0000 </r>
       <r>   -17.6245     0.0000     2.0000 </r>
       <r>   -17.5964     0.0000     2.0000 </r>
       <r>   -17.5683     0.0000     2.0000 </r>
       <r>   -17.5402     0.0000     2.0000 </r>
       <r>   -17.5121     0.0000     2.0000 </r>
       <r>   -17.4840     0.0000     2.0000 </r>
       <r>   -17.4559     0.0000     2.0000 </r>
       <r>   -17.4278     0.0000     2.0000 </r>
       <r>   -17.3997     0.0000     2.0000 </r>
       <r>   -17.3716     0.0000     2.0000 </r>
       <r>   -17.3435     0.0000     2.0000 </r>
       <r>   -17.3154     0.0000     2.0000 </r>
       <r>   -17.2873     0.0000     2.0000 </r>
       <r>   -17.2592     0.0000     2.0000 </r>
       <r>   -17.2311     0.0000     2.0000 </r>
       <r>   -17.2030     0.0000     2.0000 </r>
       <r>   -17.1749     0.0000     2.0000 </r>
       <r>   -17.1468     0.0000     2.0000 </r>
       <r>   -17.1187     0.0000     2.0000 </r>
       <r>   -17.0906     0.0000     2.0000 </r>
       <r>   -17.0625     0.0000     2.0000 </r>
       <r>   -17.0344     0.0000     2.0000 </r>
       <r>   -17.0063     0.0000     2.0000 </r>
       <r>   -16.9782     0.0000     2.0000 </r>
       <r>   -16.9500     0.0000     2.0000 </r>
       <r>   -16.9219     0.0000     2.0000 </r>
       <r>   -16.8938     0.0000     2.0000 </r>
       <r>   -16.8657     0.0000     2.0000 </r>
       <r>   -16.8376     0.0000     2.0000 </r>
       <r>   -16.8095     0.0000     2.0000 </r>
       <r>   -16.7814     0.0000     2.0000 </r>
       <r>   -16.7533     0.0000     2.0000 </r>
       <r>   -16.7252     0.0000     2.0000 </r>
       <r>   -16.6971     0.0000     2.0000 </r>
       <r>   -16.6690     0.0000     2.0000 </r>
       <r>   -16.6409     0.0000     2.0000 </r>
       <r>   -16.6128     0.0000     2.0000 </r>
       <r>   -16.5847     0.0000     2.0000 </r>
       <r>   -16.5566     0.0000     2.0000 </r>
       <r>   -16.5285     0.0000     2.0000 </r>
       <r>   -16.5004     0.0000     2.0000 </r>
       <r>   -16.4723     0.0000     2.0000 </r>
       <r>   -16.4442     0.0000     2.0000 </r>
       <r>   -16.4161     0.0000     2.0000 </r>
       <r>   -16.3880     0.0000     2.0000 </r>
       <r>   -16.3599     0.0000     2.0000 </r>
       <r>   -16.3318     0.0000     2.0000 </r>
       <r>   -16.3037     0.0000     2.0000 </r>
       <r>   -16.2756     0.0000     2.0000 </r>
       <r>   -16.2475     1.6523     2.0204 </r>
       <r>   -16.2194     3.6916     2.0949 </r>
       <r>   -16.1913     2.8000     2.1861 </r>
       <r>   -16.1632     2.7618     2.2626 </r>
       <r>   -16.1351     3.1187     2.3452 </r>
       <r>   -16.1070     3.4781     2.4379 </r>
       <r>   -16.0789     3.9890     2.5421 </r>
       <r>   -16.0508     4.7750     2.6837 </r>
       <r>   -16.0227     3.5429     2.8005 </r>
       <r>   -15.9946     2.5072     2.8836 </r>
       <r>   -15.9665     2.1620     2.9492 </r>
       <r>   -15.9384     1.8608     3.0052 </r>
       <r>   -15.9103     1.8761     3.0577 </r>
       <r>   -15.8822     1.8914     3.1107 </r>
       <r>   -15.8540     1.5886     3.1581 </r>
       <r>   -15.8259     1.6517     3.2037 </r>
       <r>   -15.7978     1.7148     3.2510 </r>
       <r>   -15.7697     1.7779     3.3000 </r>
       <r>   -15.7416     1.8411     3.3509 </r>
       <r>   -15.7135     2.0718     3.4036 </r>
       <r>   -15.6854     2.0546     3.4617 </r>
       <r>   -15.6573     2.0176     3.5190 </r>
       <r>   -15.6292     1.9806     3.5751 </r>
       <r>   -15.6011     1.9436     3.6303 </r>
       <r>   -15.5730     1.9501     3.6848 </r>
       <r>   -15.5449     2.0076     3.7403 </r>
       <r>   -15.5168     2.0777     3.7977 </r>
       <r>   -15.4887     2.1449     3.8571 </r>
       <r>   -15.4606     2.2249     3.9183 </r>
       <r>   -15.4325     2.3582     3.9827 </r>
       <r>   -15.4044     2.4070     4.0498 </r>
       <r>   -15.3763     2.4468     4.1180 </r>
       <r>   -15.3482     2.4866     4.1873 </r>
       <r>   -15.3201     2.4632     4.2571 </r>
       <r>   -15.2920     2.6374     4.3301 </r>
       <r>   -15.2639     2.6936     4.4050 </r>
       <r>   -15.2358     2.7498     4.4815 </r>
       <r>   -15.2077     3.4801     4.5649 </r>
       <r>   -15.1796     4.0356     4.6705 </r>
       <r>   -15.1515     4.4613     4.7910 </r>
       <r>   -15.1234     4.7392     4.9200 </r>
       <r>   -15.0953     3.6631     5.0417 </r>
       <r>   -15.0672     3.3728     5.1398 </r>
       <r>   -15.0391     3.0080     5.2298 </r>
       <r>   -15.0110     2.7041     5.3094 </r>
       <r>   -14.9829     2.5083     5.3826 </r>
       <r>   -14.9548     2.3129     5.4504 </r>
       <r>   -14.9267     2.1175     5.5126 </r>
       <r>   -14.8986     2.2559     5.5773 </r>
       <r>   -14.8705     2.0823     5.6383 </r>
       <r>   -14.8424     1.9087     5.6944 </r>
       <r>   -14.8143     1.7351     5.7456 </r>
       <r>   -14.7862     1.8566     5.7933 </r>
       <r>   -14.7581     1.9494     5.8511 </r>
       <r>   -14.7299     1.6053     5.9011 </r>
       <r>   -14.7018     1.2612     5.9414 </r>
       <r>   -14.6737     1.2728     5.9842 </r>
       <r>   -14.6456     0.0000     6.0000 </r>
       <r>   -14.6175     0.0000     6.0000 </r>
       <r>   -14.5894     0.0000     6.0000 </r>
       <r>   -14.5613     0.0000     6.0000 </r>
       <r>   -14.5332     0.0000     6.0000 </r>
       <r>   -14.5051     0.0000     6.0000 </r>
       <r>   -14.4770     0.0000     6.0000 </r>
       <r>   -14.4489     0.0000     6.0000 </r>
       <r>   -14.4208     0.0000     6.0000 </r>
       <r>   -14.3927     0.0000     6.0000 </r>
       <r>   -14.3646     0.0000     6.0000 </r>
       <r>   -14.3365     0.0000     6.0000 </r>
       <r>   -14.3084     0.0000     6.0000 </r>
       <r>   -14.2803     0.0000     6.0000 </r>
       <r>   -14.2522     0.0000     6.0000 </r>
       <r>   -14.2241     0.0000     6.0000 </r>
       <r>   -14.1960     0.0000     6.0000 </r>
       <r>   -14.1679     0.0000     6.0000 </r>
       <r>   -14.1398     0.0000     6.0000 </r>
       <r>   -14.1117     0.0000     6.0000 </r>
       <r>   -14.0836     0.0000     6.0000 </r>
       <r>   -14.0555     0.0000     6.0000 </r>
       <r>   -14.0274     0.0000     6.0000 </r>
       <r>   -13.9993     0.0000     6.0000 </r>
       <r>   -13.9712     0.0000     6.0000 </r>
       <r>   -13.9431     0.0000     6.0000 </r>
       <r>   -13.9150     0.0000     6.0000 </r>
       <r>   -13.8869     0.0000     6.0000 </r>
       <r>   -13.8588     0.0000     6.0000 </r>
       <r>   -13.8307     0.0000     6.0000 </r>
       <r>   -13.8026     0.0000     6.0000 </r>
       <r>   -13.7745     0.0000     6.0000 </r>
       <r>   -13.7464     0.0000     6.0000 </r>
       <r>   -13.7183     0.0000     6.0000 </r>
       <r>   -13.6902     0.0000     6.0000 </r>
       <r>   -13.6621     0.0000     6.0000 </r>
       <r>   -13.6339     0.0000     6.0000 </r>
       <r>   -13.6058     0.0000     6.0000 </r>
       <r>   -13.5777     0.0000     6.0000 </r>
       <r>   -13.5496     0.0000     6.0000 </r>
       <r>   -13.5215     0.0000     6.0000 </r>
       <r>   -13.4934     0.0000     6.0000 </r>
       <r>   -13.4653     0.0000     6.0000 </r>
       <r>   -13.4372     0.0000     6.0000 </r>
       <r>   -13.4091     0.0000     6.0000 </r>
       <r>   -13.3810     0.0000     6.0000 </r>
       <r>   -13.3529     0.0000     6.0000 </r>
       <r>   -13.3248     0.0000     6.0000 </r>
       <r>   -13.2967     0.0000     6.0000 </r>
       <r>   -13.2686     0.0000     6.0000 </r>
       <r>   -13.2405     0.0000     6.0000 </r>
       <r>   -13.2124     0.0000     6.0000 </r>
       <r>   -13.1843     0.0000     6.0000 </r>
       <r>   -13.1562     0.0000     6.0000 </r>
       <r>   -13.1281     0.0000     6.0000 </r>
       <r>   -13.1000     0.0000     6.0000 </r>
       <r>   -13.0719     0.0000     6.0000 </r>
       <r>   -13.0438     0.0000     6.0000 </r>
       <r>   -13.0157     0.0000     6.0000 </r>
       <r>   -12.9876     0.0000     6.0000 </r>
       <r>   -12.9595     0.0000     6.0000 </r>
       <r>   -12.9314     0.0000     6.0000 </r>
       <r>   -12.9033     0.0000     6.0000 </r>
       <r>   -12.8752     0.0000     6.0000 </r>
       <r>   -12.8471     0.0000     6.0000 </r>
       <r>   -12.8190     1.0695     6.0140 </r>
       <r>   -12.7909     1.5334     6.0516 </r>
       <r>   -12.7628     1.9174     6.1001 </r>
       <r>   -12.7347     2.3015     6.1594 </r>
       <r>   -12.7066     2.5670     6.2280 </r>
       <r>   -12.6785     2.3550     6.2985 </r>
       <r>   -12.6504     2.2816     6.3636 </r>
       <r>   -12.6223     2.3144     6.4277 </r>
       <r>   -12.5942     2.4205     6.4941 </r>
       <r>   -12.5661     2.5609     6.5641 </r>
       <r>   -12.5379     2.7132     6.6381 </r>
       <r>   -12.5098     2.8912     6.7168 </r>
       <r>   -12.4817     3.0691     6.8006 </r>
       <r>   -12.4536     3.3226     6.8894 </r>
       <r>   -12.4255     5.8688     7.0245 </r>
       <r>   -12.3974     4.7663     7.1740 </r>
       <r>   -12.3693     3.6639     7.2924 </r>
       <r>   -12.3412     4.6072     7.4062 </r>
       <r>   -12.3131     3.3279     7.5042 </r>
       <r>   -12.2850     1.3785     7.5770 </r>
       <r>   -12.2569     1.5546     7.6182 </r>
       <r>   -12.2288     1.7308     7.6644 </r>
       <r>   -12.2007     1.7189     7.7155 </r>
       <r>   -12.1726     1.6442     7.7628 </r>
       <r>   -12.1445     1.5696     7.8079 </r>
       <r>   -12.1164     1.4950     7.8510 </r>
       <r>   -12.0883     1.4203     7.8919 </r>
       <r>   -12.0602     1.3729     7.9310 </r>
       <r>   -12.0321     1.3521     7.9693 </r>
       <r>   -12.0040     1.4215     8.0080 </r>
       <r>   -11.9759     1.5180     8.0493 </r>
       <r>   -11.9478     1.6146     8.0933 </r>
       <r>   -11.9197     1.6829     8.1398 </r>
       <r>   -11.8916     1.2283     8.1821 </r>
       <r>   -11.8635     1.1765     8.2159 </r>
       <r>   -11.8354     1.1247     8.2482 </r>
       <r>   -11.8073     1.5038     8.2858 </r>
       <r>   -11.7792     1.3739     8.3262 </r>
       <r>   -11.7511     1.2441     8.3630 </r>
       <r>   -11.7230     1.1142     8.3961 </r>
       <r>   -11.6949     1.1053     8.4270 </r>
       <r>   -11.6668     1.1209     8.4583 </r>
       <r>   -11.6387     1.1366     8.4900 </r>
       <r>   -11.6106     1.1522     8.5222 </r>
       <r>   -11.5825     1.1679     8.5548 </r>
       <r>   -11.5544     1.1836     8.5878 </r>
       <r>   -11.5263     1.1889     8.6212 </r>
       <r>   -11.4982     1.2308     8.6549 </r>
       <r>   -11.4701     1.3249     8.6908 </r>
       <r>   -11.4420     1.4191     8.7293 </r>
       <r>   -11.4138     2.0654     8.7906 </r>
       <r>   -11.3857     1.5222     8.8408 </r>
       <r>   -11.3576     1.7515     8.8868 </r>
       <r>   -11.3295     1.9808     8.9392 </r>
       <r>   -11.3014     2.2101     8.9981 </r>
       <r>   -11.2733     2.4394     9.0634 </r>
       <r>   -11.2452     2.6687     9.1352 </r>
       <r>   -11.2171     1.8483     9.1950 </r>
       <r>   -11.1890     1.9117     9.2479 </r>
       <r>   -11.1609     1.9750     9.3025 </r>
       <r>   -11.1328     2.0384     9.3589 </r>
       <r>   -11.1047     2.1028     9.4171 </r>
       <r>   -11.0766     1.7811     9.4703 </r>
       <r>   -11.0485     1.7613     9.5200 </r>
       <r>   -11.0204     1.7415     9.5693 </r>
       <r>   -10.9923     1.7056     9.6178 </r>
       <r>   -10.9642     1.6625     9.6651 </r>
       <r>   -10.9361     1.6193     9.7112 </r>
       <r>   -10.9080     1.5762     9.7561 </r>
       <r>   -10.8799     1.5436     9.7999 </r>
       <r>   -10.8518     1.5263     9.8430 </r>
       <r>   -10.8237     1.5071     9.8856 </r>
       <r>   -10.7956     1.4610     9.9273 </r>
       <r>   -10.7675     1.4150     9.9678 </r>
       <r>   -10.7394     1.3690    10.0069 </r>
       <r>   -10.7113     1.3259    10.0447 </r>
       <r>   -10.6832     1.7975    10.0867 </r>
       <r>   -10.6551     1.5566    10.1338 </r>
       <r>   -10.6270     1.3157    10.1742 </r>
       <r>   -10.5989     1.0749    10.2078 </r>
       <r>   -10.5708     0.8340    10.2346 </r>
       <r>   -10.5427     0.5931    10.2547 </r>
       <r>   -10.5146     0.4293    10.2683 </r>
       <r>   -10.4865     0.4366    10.2804 </r>
       <r>   -10.4584     0.4440    10.2928 </r>
       <r>   -10.4303     0.4513    10.3054 </r>
       <r>   -10.4022     0.4587    10.3182 </r>
       <r>   -10.3741     0.4660    10.3312 </r>
       <r>   -10.3460     0.4734    10.3444 </r>
       <r>   -10.3178     0.4509    10.3573 </r>
       <r>   -10.2897     0.4518    10.3700 </r>
       <r>   -10.2616     0.4528    10.3827 </r>
       <r>   -10.2335     0.4538    10.3955 </r>
       <r>   -10.2054     0.4547    10.4082 </r>
       <r>   -10.1773     0.4557    10.4210 </r>
       <r>   -10.1492     0.4607    10.4339 </r>
       <r>   -10.1211     0.4666    10.4469 </r>
       <r>   -10.0930     0.4724    10.4601 </r>
       <r>   -10.0649     0.4783    10.4735 </r>
       <r>   -10.0368     0.4842    10.4870 </r>
       <r>   -10.0087     0.4900    10.5007 </r>
       <r>    -9.9806     0.4959    10.5145 </r>
       <r>    -9.9525     0.5018    10.5286 </r>
       <r>    -9.9244     0.5076    10.5427 </r>
       <r>    -9.8963     0.5691    10.5576 </r>
       <r>    -9.8682     0.6660    10.5749 </r>
       <r>    -9.8401     0.7629    10.5950 </r>
       <r>    -9.8120     0.8598    10.6178 </r>
       <r>    -9.7839     0.9567    10.6433 </r>
       <r>    -9.7558     1.0536    10.6716 </r>
       <r>    -9.7277     0.8312    10.6955 </r>
       <r>    -9.6996     0.8463    10.7191 </r>
       <r>    -9.6715     0.8613    10.7431 </r>
       <r>    -9.6434     0.8763    10.7675 </r>
       <r>    -9.6153     0.8913    10.7923 </r>
       <r>    -9.5872     0.9064    10.8176 </r>
       <r>    -9.5591     0.9214    10.8433 </r>
       <r>    -9.5310     1.0330    10.8703 </r>
       <r>    -9.5029     1.1988    10.9016 </r>
       <r>    -9.4748     1.3646    10.9376 </r>
       <r>    -9.4467     1.5235    10.9783 </r>
       <r>    -9.4186     1.6763    11.0232 </r>
       <r>    -9.3905     1.8291    11.0725 </r>
       <r>    -9.3624     1.6191    11.1226 </r>
       <r>    -9.3343     1.6397    11.1684 </r>
       <r>    -9.3062     1.6653    11.2148 </r>
       <r>    -9.2781     1.6939    11.2620 </r>
       <r>    -9.2500     1.7226    11.3100 </r>
       <r>    -9.2218     1.7512    11.3588 </r>
       <r>    -9.1937     1.7798    11.4084 </r>
       <r>    -9.1656     1.8085    11.4589 </r>
       <r>    -9.1375     1.8531    11.5102 </r>
       <r>    -9.1094     3.1049    11.5740 </r>
       <r>    -9.0813     3.6443    11.6726 </r>
       <r>    -9.0532     3.6745    11.7755 </r>
       <r>    -9.0251     3.5703    11.8788 </r>
       <r>    -8.9970     2.7637    11.9678 </r>
       <r>    -8.9689     2.0455    12.0343 </r>
       <r>    -8.9408     1.9337    12.0903 </r>
       <r>    -8.9127     1.8281    12.1431 </r>
       <r>    -8.8846     1.7168    12.1929 </r>
       <r>    -8.8565     1.6029    12.2396 </r>
       <r>    -8.8284     1.4891    12.2830 </r>
       <r>    -8.8003     1.7318    12.3245 </r>
       <r>    -8.7722     1.4642    12.3695 </r>
       <r>    -8.7441     1.1965    12.4068 </r>
       <r>    -8.7160     0.9289    12.4367 </r>
       <r>    -8.6879     0.6634    12.4591 </r>
       <r>    -8.6598     0.4718    12.4743 </r>
       <r>    -8.6317     0.4776    12.4876 </r>
       <r>    -8.6036     0.4835    12.5011 </r>
       <r>    -8.5755     0.4893    12.5148 </r>
       <r>    -8.5474     0.4951    12.5286 </r>
       <r>    -8.5193     0.5010    12.5426 </r>
       <r>    -8.4912     0.5068    12.5568 </r>
       <r>    -8.4631     4.8781    12.6115 </r>
       <r>    -8.4350     2.8327    12.7660 </r>
       <r>    -8.4069     3.8954    12.8543 </r>
       <r>    -8.3788     9.3430    13.0199 </r>
       <r>    -8.3507     6.5447    13.2449 </r>
       <r>    -8.3226     3.9959    13.3905 </r>
       <r>    -8.2945     2.4593    13.4772 </r>
       <r>    -8.2664     1.5818    13.5335 </r>
       <r>    -8.2383     1.4200    13.5757 </r>
       <r>    -8.2102     1.2581    13.6133 </r>
       <r>    -8.1821     1.0963    13.6464 </r>
       <r>    -8.1540     0.9344    13.6749 </r>
       <r>    -8.1258     0.7726    13.6989 </r>
       <r>    -8.0977     0.6107    13.7184 </r>
       <r>    -8.0696     0.5263    13.7339 </r>
       <r>    -8.0415     0.5040    13.7483 </r>
       <r>    -8.0134     0.4817    13.7622 </r>
       <r>    -7.9853     0.9215    13.7813 </r>
       <r>    -7.9572     1.4091    13.8141 </r>
       <r>    -7.9291     2.9602    13.8752 </r>
       <r>    -7.9010     2.9282    13.9580 </r>
       <r>    -7.8729     2.8961    14.0398 </r>
       <r>    -7.8448     2.8930    14.1209 </r>
       <r>    -7.8167     2.9493    14.2030 </r>
       <r>    -7.7886     2.5340    14.2835 </r>
       <r>    -7.7605     2.5620    14.3551 </r>
       <r>    -7.7324     2.5901    14.4275 </r>
       <r>    -7.7043     2.6181    14.5007 </r>
       <r>    -7.6762     2.6486    14.5747 </r>
       <r>    -7.6481     2.5702    14.6492 </r>
       <r>    -7.6200     3.1647    14.7250 </r>
       <r>    -7.5919     4.6533    14.8349 </r>
       <r>    -7.5638     2.3917    14.9546 </r>
       <r>    -7.5357     2.3226    15.0208 </r>
       <r>    -7.5076     2.2534    15.0851 </r>
       <r>    -7.4795     2.1843    15.1475 </r>
       <r>    -7.4514     2.1152    15.2079 </r>
       <r>    -7.4233     2.0461    15.2664 </r>
       <r>    -7.3952     1.9770    15.3229 </r>
       <r>    -7.3671     1.9079    15.3775 </r>
       <r>    -7.3390     3.0211    15.4424 </r>
       <r>    -7.3109     5.2849    15.5591 </r>
       <r>    -7.2828     0.9893    15.6598 </r>
       <r>    -7.2547     1.2408    15.6879 </r>
       <r>    -7.2266     1.1633    15.7217 </r>
       <r>    -7.1985     5.4464    15.8051 </r>
       <r>    -7.1704     3.3436    15.9601 </r>
       <r>    -7.1423     2.5970    16.0436 </r>
       <r>    -7.1142     2.1238    16.1075 </r>
       <r>    -7.0861     2.0902    16.1667 </r>
       <r>    -7.0580     1.9605    16.2247 </r>
       <r>    -7.0299     3.0728    16.2902 </r>
       <r>    -7.0017     4.7273    16.3998 </r>
       <r>    -6.9736     1.2661    16.4523 </r>
       <r>    -6.9455     1.2921    16.4883 </r>
       <r>    -6.9174     1.3181    16.5250 </r>
       <r>    -6.8893     1.3441    16.5624 </r>
       <r>    -6.8612     1.3609    16.6005 </r>
       <r>    -6.8331     1.3297    16.6383 </r>
       <r>    -6.8050     1.4814    16.6773 </r>
       <r>    -6.7769     2.0449    16.7246 </r>
       <r>    -6.7488     2.8914    16.7940 </r>
       <r>    -6.7207     3.7380    16.8871 </r>
       <r>    -6.6926     2.8248    16.9820 </r>
       <r>    -6.6645     2.0420    17.0472 </r>
       <r>    -6.6364     2.7492    17.1145 </r>
       <r>    -6.6083     3.4563    17.2017 </r>
       <r>    -6.5802     3.0776    17.2942 </r>
       <r>    -6.5521     3.0432    17.3782 </r>
       <r>    -6.5240     5.3324    17.4876 </r>
       <r>    -6.4959     5.4763    17.6395 </r>
       <r>    -6.4678     6.0306    17.8119 </r>
       <r>    -6.4397     5.1053    17.9684 </r>
       <r>    -6.4116     4.3199    18.0998 </r>
       <r>    -6.3835     3.6814    18.2122 </r>
       <r>    -6.3554     3.5618    18.3130 </r>
       <r>    -6.3273     6.5328    18.4448 </r>
       <r>    -6.2992     5.8954    18.6194 </r>
       <r>    -6.2711     6.6390    18.7990 </r>
       <r>    -6.2430     3.8831    18.9390 </r>
       <r>    -6.2149     2.8377    19.0289 </r>
       <r>    -6.1868     2.4456    19.1031 </r>
       <r>    -6.1587     2.5197    19.1697 </r>
       <r>    -6.1306     3.0356    19.2478 </r>
       <r>    -6.1025     2.2470    19.3207 </r>
       <r>    -6.0744     1.6013    19.3748 </r>
       <r>    -6.0463     0.9556    19.4107 </r>
       <r>    -6.0182     0.7856    19.4337 </r>
       <r>    -5.9901     0.7549    19.4553 </r>
       <r>    -5.9620     0.7452    19.4762 </r>
       <r>    -5.9339     0.8670    19.4978 </r>
       <r>    -5.9057     1.3649    19.5280 </r>
       <r>    -5.8776     2.8215    19.5868 </r>
       <r>    -5.8495     4.2780    19.6865 </r>
       <r>    -5.8214     1.8630    19.7624 </r>
       <r>    -5.7933     1.9580    19.8161 </r>
       <r>    -5.7652     2.0531    19.8725 </r>
       <r>    -5.7371     2.1482    19.9315 </r>
       <r>    -5.7090     2.2432    19.9932 </r>
       <r>    -5.6809     2.3383    20.0576 </r>
       <r>    -5.6528     1.6989    20.1149 </r>
       <r>    -5.6247     1.6751    20.1623 </r>
       <r>    -5.5966     1.6513    20.2090 </r>
       <r>    -5.5685     1.6757    20.2557 </r>
       <r>    -5.5404     1.7083    20.3032 </r>
       <r>    -5.5123     1.7409    20.3517 </r>
       <r>    -5.4842     1.7735    20.4011 </r>
       <r>    -5.4561     1.8061    20.4514 </r>
       <r>    -5.4280     1.7783    20.5018 </r>
       <r>    -5.3999     1.7407    20.5513 </r>
       <r>    -5.3718     1.7032    20.5997 </r>
       <r>    -5.3437     1.6656    20.6470 </r>
       <r>    -5.3156     2.4654    20.6958 </r>
       <r>    -5.2875     2.5272    20.7643 </r>
       <r>    -5.2594     2.8521    20.8399 </r>
       <r>    -5.2313     3.3750    20.9261 </r>
       <r>    -5.2032     5.6935    21.0372 </r>
       <r>    -5.1751     4.1304    21.1734 </r>
       <r>    -5.1470     4.7693    21.2984 </r>
       <r>    -5.1189     5.4082    21.4415 </r>
       <r>    -5.0908     8.3806    21.6210 </r>
       <r>    -5.0627     9.8132    21.8827 </r>
       <r>    -5.0346    11.2110    22.1722 </r>
       <r>    -5.0065    10.2959    22.4752 </r>
       <r>    -4.9784     9.2312    22.7817 </r>
       <r>    -4.9503     5.6207    22.9708 </r>
       <r>    -4.9222     4.4394    23.1095 </r>
       <r>    -4.8941     3.5645    23.2215 </r>
       <r>    -4.8660     3.3583    23.3186 </r>
       <r>    -4.8379     5.4427    23.4436 </r>
       <r>    -4.8097     5.2184    23.6067 </r>
       <r>    -4.7816     3.3626    23.7270 </r>
       <r>    -4.7535     2.2890    23.8006 </r>
       <r>    -4.7254     2.3115    23.8653 </r>
       <r>    -4.6973     2.3339    23.9306 </r>
       <r>    -4.6692     2.3564    23.9965 </r>
       <r>    -4.6411     2.3789    24.0630 </r>
       <r>    -4.6130     2.4013    24.1302 </r>
       <r>    -4.5849     2.4242    24.1980 </r>
       <r>    -4.5568     2.3846    24.2654 </r>
       <r>    -4.5287     2.4225    24.3330 </r>
       <r>    -4.5006     2.4604    24.4016 </r>
       <r>    -4.4725     2.4983    24.4713 </r>
       <r>    -4.4444     2.5510    24.5423 </r>
       <r>    -4.4163     2.5514    24.6140 </r>
       <r>    -4.3882     2.5548    24.6857 </r>
       <r>    -4.3601     2.5669    24.7577 </r>
       <r>    -4.3320     2.5710    24.8299 </r>
       <r>    -4.3039     2.5653    24.9021 </r>
       <r>    -4.2758     2.5596    24.9741 </r>
       <r>    -4.2477     2.5640    25.0460 </r>
       <r>    -4.2196     2.5869    25.1184 </r>
       <r>    -4.1915     2.6097    25.1914 </r>
       <r>    -4.1634     2.6417    25.2651 </r>
       <r>    -4.1353     2.6848    25.3400 </r>
       <r>    -4.1072     2.7279    25.4160 </r>
       <r>    -4.0791     2.7982    25.4934 </r>
       <r>    -4.0510     2.9064    25.5736 </r>
       <r>    -4.0229     3.0303    25.6570 </r>
       <r>    -3.9948     3.1080    25.7435 </r>
       <r>    -3.9667     3.1498    25.8315 </r>
       <r>    -3.9386     3.1832    25.9205 </r>
       <r>    -3.9105     3.2111    26.0104 </r>
       <r>    -3.8824     3.2390    26.1010 </r>
       <r>    -3.8543     3.3564    26.1945 </r>
       <r>    -3.8262     3.3988    26.2894 </r>
       <r>    -3.7981     3.4412    26.3855 </r>
       <r>    -3.7700     3.4836    26.4828 </r>
       <r>    -3.7419     4.3372    26.5952 </r>
       <r>    -3.7137     4.3795    26.7177 </r>
       <r>    -3.6856     4.4217    26.8414 </r>
       <r>    -3.6575     4.3393    26.9648 </r>
       <r>    -3.6294     4.2774    27.0856 </r>
       <r>    -3.6013     4.5950    27.2118 </r>
       <r>    -3.5732     4.7090    27.3428 </r>
       <r>    -3.5451     4.8612    27.4763 </r>
       <r>    -3.5170     5.0049    27.6149 </r>
       <r>    -3.4889     5.1486    27.7576 </r>
       <r>    -3.4608     5.2547    27.9039 </r>
       <r>    -3.4327     5.3461    28.0529 </r>
       <r>    -3.4046     4.6294    28.1965 </r>
       <r>    -3.3765     4.4919    28.3247 </r>
       <r>    -3.3484     4.5030    28.4550 </r>
       <r>    -3.3203     3.8249    28.5720 </r>
       <r>    -3.2922     3.2535    28.6705 </r>
       <r>    -3.2641     3.4529    28.7640 </r>
       <r>    -3.2360     3.3655    28.8601 </r>
       <r>    -3.2079     4.3034    28.9817 </r>
       <r>    -3.1798     3.3200    29.0889 </r>
       <r>    -3.1517     2.0184    29.1905 </r>
       <r>    -3.1236     1.4682    29.2332 </r>
       <r>    -3.0955     1.4115    29.2736 </r>
       <r>    -3.0674     1.3548    29.3125 </r>
       <r>    -3.0393     1.2981    29.3498 </r>
       <r>    -3.0112     1.2477    29.3855 </r>
       <r>    -2.9831     1.2457    29.4204 </r>
       <r>    -2.9550     1.2525    29.4555 </r>
       <r>    -2.9269     1.3328    29.4911 </r>
       <r>    -2.8988     1.3060    29.5281 </r>
       <r>    -2.8707     1.2773    29.5645 </r>
       <r>    -2.8426     1.2379    29.5998 </r>
       <r>    -2.8145     1.1986    29.6340 </r>
       <r>    -2.7864     1.1592    29.6672 </r>
       <r>    -2.7583     1.1198    29.6992 </r>
       <r>    -2.7302     1.0805    29.7301 </r>
       <r>    -2.7021     1.1387    29.7611 </r>
       <r>    -2.6740     1.2042    29.7941 </r>
       <r>    -2.6459     1.1394    29.8271 </r>
       <r>    -2.6178     1.0745    29.8582 </r>
       <r>    -2.5896     1.2075    29.8920 </r>
       <r>    -2.5615     1.0375    29.9236 </r>
       <r>    -2.5334     1.4504    29.9515 </r>
       <r>    -2.5053     0.8406    29.9837 </r>
       <r>    -2.4772     0.2308    29.9988 </r>
       <r>    -2.4491     0.0000    30.0000 </r>
       <r>    -2.4210     0.0000    30.0000 </r>
       <r>    -2.3929     0.0000    30.0000 </r>
       <r>    -2.3648     0.0000    30.0000 </r>
       <r>    -2.3367     0.0000    30.0000 </r>
       <r>    -2.3086     0.0000    30.0000 </r>
       <r>    -2.2805     0.0000    30.0000 </r>
       <r>    -2.2524     0.0000    30.0000 </r>
       <r>    -2.2243     0.0000    30.0000 </r>
       <r>    -2.1962     0.0000    30.0000 </r>
       <r>    -2.1681     0.0000    30.0000 </r>
       <r>    -2.1400     0.0000    30.0000 </r>
       <r>    -2.1119     0.0000    30.0000 </r>
       <r>    -2.0838     0.0000    30.0000 </r>
       <r>    -2.0557     0.0000    30.0000 </r>
       <r>    -2.0276     0.0000    30.0000 </r>
       <r>    -1.9995     0.0000    30.0000 </r>
       <r>    -1.9714     0.0000    30.0000 </r>
       <r>    -1.9433     0.0000    30.0000 </r>
       <r>    -1.9152     0.0000    30.0000 </r>
       <r>    -1.8871     0.0000    30.0000 </r>
       <r>    -1.8590     0.0000    30.0000 </r>
       <r>    -1.8309     0.0000    30.0000 </r>
       <r>    -1.8028     0.4036    30.0040 </r>
       <r>    -1.7747     0.8416    30.0227 </r>
       <r>    -1.7466     1.0496    30.0493 </r>
       <r>    -1.7185     1.2576    30.0817 </r>
       <r>    -1.6904     1.4656    30.1200 </r>
       <r>    -1.6623     1.6640    30.1640 </r>
       <r>    -1.6342     1.8317    30.2131 </r>
[...]
        <r>  0.0000  0.0000  0.0005  0.0000  0.0000  0.0000  0.0000  0.0000  0.0000 </r>
        <r>  0.0000  0.0000  0.0532  0.0000  0.0000  0.0000  0.0000  0.0000  0.0000 </r>
        <r>  0.0000  0.0000  0.0142  0.0000  0.0000  0.0000  0.0000  0.0000  0.0000 </r>
        <r>  0.0000  0.0000  0.0141  0.0000  0.0000  0.0000  0.0000  0.0000  0.0000 </r>
        <r>  0.0000  0.0000  0.0531  0.0000  0.0000  0.0000  0.0000  0.0000  0.0000 </r>
        <r>  0.0000  0.0000  0.0005  0.0000  0.0000  0.0000  0.0000  0.0000  0.0000 </r>
       </set>
      </set>
      <set comment="kpoint 19">
       <set comment="band 1">
        <r>  0.0000  0.0047  0.0000  0.0047  0.0000  0.0000  0.0000  0.0000  0.0000 </r>
        <r>  0.0000  0.0047  0.0000  0.0047  0.0000  0.0000  0.0000  0.0000  0.0000 </r>
        <r>  0.0961  0.0081  0.0000  0.0028  0.0000  0.0000  0.0000  0.0000  0.0000 </r>
        <r>  0.0961  0.0081  0.0000  0.0028  0.0000  0.0000  0.0000  0.0000  0.0000 </r>
        <r>  0.0961  0.0001  0.0000  0.0107  0.0000  0.0000  0.0000  0.0000  0.0000 </r>
        <r>  0.0961  0.0001  0.0000  0.0107  0.0000  0.0000  0.0000  0.0000  0.0000 </r>
        <r>  0.0961  0.0081  0.0000  0.0028  0.0000  0.0000  0.0000  0.0000  0.0000 </r>
        <r>  0.0961  0.0081  0.0000  0.0028  0.0000  0.0000  0.0000  0.0000  0.0000 </r>
       </set>
       <set comment="band 2">
        <r>  0.0394  0.0050  0.0000  0.0050  0.0000  0.0000  0.0000  0.0000  0.0000 </r>
        <r>  0.0394  0.0050  0.0000  0.0050  0.0000  0.0000  0.0000  0.0000  0.0000 </r>
        <r>  0.0427  0.0053  0.0000  0.0120  0.0000  0.0000  0.0000  0.0000  0.0000 </r>
        <r>  0.0427  0.0053  0.0000  0.0120  0.0000  0.0000  0.0000  0.0000  0.0000 </r>
        <r>  0.1610  0.0018  0.0000  0.0004  0.0000  0.0000  0.0000  0.0000  0.0000 </r>
        <r>  0.1610  0.0018  0.0000  0.0004  0.0000  0.0000  0.0000  0.0000  0.0000 </r>
        <r>  0.0427  0.0053  0.0000  0.0120  0.0000  0.0000  0.0000  0.0000  0.0000 </r>
        <r>  0.0427  0.0053  0.0000  0.0120  0.0000  0.0000  0.0000  0.0000  0.0000 </r>
       </set>
       <set comment="band 3">
        <r>  0.0394  0.0050  0.0000  0.0050  0.0000  0.0000  0.0000  0.0000  0.0000 </r>
        <r>  0.0394  0.0050  0.0000  0.0050  0.0000  0.0000  0.0000  0.0000  0.0000 </r>
        <r>  0.1216  0.0013  0.0000  0.0059  0.0000  0.0000  0.0000  0.0000  0.0000 </r>
        <r>  0.1216  0.0013  0.0000  0.0059  0.0000  0.0000  0.0000  0.0000  0.0000 </r>
        <r>  0.0032  0.0217  0.0000  0.0006  0.0000  0.0000  0.0000  0.0000  0.0000 </r>
        <r>  0.0032  0.0217  0.0000  0.0006  0.0000  0.0000  0.0000  0.0000  0.0000 </r>
        <r>  0.1216  0.0013  0.0000  0.0059  0.0000  0.0000  0.0000  0.0000  0.0000 </r>
        <r>  0.1216  0.0013  0.0000  0.0059  0.0000  0.0000  0.0000  0.0000  0.0000 </r>
       </set>
       <set comment="band 4">
        <r>  0.0525  0.0051  0.0000  0.0051  0.0000  0.0000  0.0000  0.0000  0.0000 </r>
        <r>  0.0525  0.0051  0.0000  0.0051  0.0000  0.0000  0.0000  0.0000  0.0000 </r>
        <r>  0.0771  0.0054  0.0000  0.0203  0.0000  0.0000  0.0000  0.0000  0.0000 </r>
        <r>  0.0771  0.0054  0.0000  0.0203  0.0000  0.0000  0.0000  0.0000  0.0000 </r>
        <r>  0.0163  0.0619  0.0000  0.0104  0.0000  0.0000  0.0000  0.0000  0.0000 </r>
        <r>  0.0163  0.0619  0.0000  0.0104  0.0000  0.0000  0.0000  0.0000  0.0000 </r>
        <r>  0.0771  0.0054  0.0000  0.0203  0.0000  0.0000  0.0000  0.0000  0.0000 </r>
        <r>  0.0771  0.0054  0.0000  0.0203  0.0000  0.0000  0.0000  0.0000  0.0000 </r>
       </set>
       <set comment="band 5">
        <r>  0.0525  0.0051  0.0000  0.0051  0.0000  0.0000  0.0000  0.0000  0.0000 </r>
        <r>  0.0525  0.0051  0.0000  0.0051  0.0000  0.0000  0.0000  0.0000  0.0000 </r>
        <r>  0.0366  0.0232  0.0000  0.0336  0.0000  0.0000  0.0000  0.0000  0.0000 </r>
        <r>  0.0366  0.0232  0.0000  0.0336  0.0000  0.0000  0.0000  0.0000  0.0000 </r>
        <r>  0.0974  0.0045  0.0000  0.0056  0.0000  0.0000  0.0000  0.0000  0.0000 </r>
        <r>  0.0974  0.0045  0.0000  0.0056  0.0000  0.0000  0.0000  0.0000  0.0000 </r>
        <r>  0.0366  0.0232  0.0000  0.0336  0.0000  0.0000  0.0000  0.0000  0.0000 </r>
        <r>  0.0366  0.0232  0.0000  0.0336  0.0000  0.0000  0.0000  0.0000  0.0000 </r>
       </set>
       <set comment="band 6">
        <r>  0.0000  0.0310  0.0000  0.0310  0.0000  0.0000  0.0000  0.0000  0.0000 </r>
        <r>  0.0000  0.0310  0.0000  0.0310  0.0000  0.0000  0.0000  0.0000  0.0000 </r>
        <r>  0.0003  0.0349  0.0000  0.0501  0.0000  0.0000  0.0000  0.0000  0.0000 </r>
        <r>  0.0003  0.0349  0.0000  0.0501  0.0000  0.0000  0.0000  0.0000  0.0000 </r>
        <r>  0.0003  0.0577  0.0000  0.0274  0.0000  0.0000  0.0000  0.0000  0.0000 </r>
        <r>  0.0003  0.0577  0.0000  0.0274  0.0000  0.0000  0.0000  0.0000  0.0000 </r>
        <r>  0.0003  0.0349  0.0000  0.0501  0.0000  0.0000  0.0000  0.0000  0.0000 </r>
        <r>  0.0003  0.0349  0.0000  0.0501  0.0000  0.0000  0.0000  0.0000  0.0000 </r>
       </set>
       <set comment="band 7">
        <r>  0.0855  0.0056  0.0000  0.0056  0.0000  0.0000  0.0000  0.0000  0.0000 </r>
        <r>  0.0855  0.0056  0.0000  0.0056  0.0000  0.0000  0.0000  0.0000  0.0000 </r>
        <r>  0.0125  0.0456  0.0000  0.0035  0.0000  0.0000  0.0000  0.0000  0.0000 </r>
        <r>  0.0125  0.0456  0.0000  0.0035  0.0000  0.0000  0.0000  0.0000  0.0000 </r>
        <r>  0.0047  0.0535  0.0000  0.0937  0.0000  0.0000  0.0000  0.0000  0.0000 </r>
        <r>  0.0047  0.0535  0.0000  0.0937  0.0000  0.0000  0.0000  0.0000  0.0000 </r>
        <r>  0.0125  0.0456  0.0000  0.0035  0.0000  0.0000  0.0000  0.0000  0.0000 </r>
        <r>  0.0125  0.0456  0.0000  0.0035  0.0000  0.0000  0.0000  0.0000  0.0000 </r>
       </set>
       <set comment="band 8">
        <r>  0.0855  0.0056  0.0000  0.0056  0.0000  0.0000  0.0000  0.0000  0.0000 </r>
        <r>  0.0855  0.0056  0.0000  0.0056  0.0000  0.0000  0.0000  0.0000  0.0000 </r>
        <r>  0.0073  0.0470  0.0000  0.0675  0.0000  0.0000  0.0000  0.0000  0.0000 </r>
        <r>  0.0073  0.0470  0.0000  0.0675  0.0000  0.0000  0.0000  0.0000  0.0000 </r>
        <r>  0.0151  0.0068  0.0000  0.0097  0.0000  0.0000  0.0000  0.0000  0.0000 </r>
        <r>  0.0151  0.0068  0.0000  0.0097  0.0000  0.0000  0.0000  0.0000  0.0000 </r>
        <r>  0.0073  0.0470  0.0000  0.0675  0.0000  0.0000  0.0000  0.0000  0.0000 </r>
        <r>  0.0073  0.0470  0.0000  0.0675  0.0000  0.0000  0.0000  0.0000  0.0000 </r>
       </set>
       <set comment="band 9">
        <r>  0.0000  0.0194  0.0000  0.0194  0.0000  0.0000  0.0000  0.0000  0.0000 </r>
        <r>  0.0000  0.0194  0.0000  0.0194  0.0000  0.0000  0.0000  0.0000  0.0000 </r>
        <r>  0.0046  0.0467  0.0000  0.0531  0.0000  0.0000  0.0000  0.0000  0.0000 </r>
        <r>  0.0046  0.0467  0.0000  0.0531  0.0000  0.0000  0.0000  0.0000  0.0000 </r>
        <r>  0.0046  0.0563  0.0000  0.0435  0.0000  0.0000  0.0000  0.0000  0.0000 </r>
        <r>  0.0046  0.0563  0.0000  0.0435  0.0000  0.0000  0.0000  0.0000  0.0000 </r>
        <r>  0.0046  0.0467  0.0000  0.0531  0.0000  0.0000  0.0000  0.0000  0.0000 </r>
        <r>  0.0046  0.0467  0.0000  0.0531  0.0000  0.0000  0.0000  0.0000  0.0000 </r>
       </set>
       <set comment="band 10">
        <r>  0.0000  0.0000  0.0000  0.0000  0.0000  0.0000  0.0000  0.0000  0.0000 </r>
        <r>  0.0000  0.0000  0.0000  0.0000  0.0000  0.0000  0.0000  0.0000  0.0000 </r>
        <r>  0.0000  0.0000  0.0729  0.0000  0.0000  0.0000  0.0000  0.0000  0.0000 </r>
        <r>  0.0000  0.0000  0.0729  0.0000  0.0000  0.0000  0.0000  0.0000  0.0000 </r>
        <r>  0.0000  0.0000  0.0729  0.0000  0.0000  0.0000  0.0000  0.0000  0.0000 </r>
        <r>  0.0000  0.0000  0.0729  0.0000  0.0000  0.0000  0.0000  0.0000  0.0000 </r>
        <r>  0.0000  0.0000  0.0729  0.0000  0.0000  0.0000  0.0000  0.0000  0.0000 </r>
        <r>  0.0000  0.0000  0.0729  0.0000  0.0000  0.0000  0.0000  0.0000  0.0000 </r>
       </set>
       <set comment="band 11">
        <r>  0.0000  0.0774  0.0000  0.0774  0.0000  0.0000  0.0000  0.0000  0.0000 </r>
        <r>  0.0000  0.0774  0.0000  0.0774  0.0000  0.0000  0.0000  0.0000  0.0000 </r>
        <r>  0.0451  0.0218  0.0000  0.0074  0.0000  0.0000  0.0000  0.0000  0.0000 </r>
        <r>  0.0451  0.0218  0.0000  0.0074  0.0000  0.0000  0.0000  0.0000  0.0000 </r>
        <r>  0.0451  0.0003  0.0000  0.0290  0.0000  0.0000  0.0000  0.0000  0.0000 </r>
        <r>  0.0451  0.0003  0.0000  0.0290  0.0000  0.0000  0.0000  0.0000  0.0000 </r>
        <r>  0.0451  0.0218  0.0000  0.0074  0.0000  0.0000  0.0000  0.0000  0.0000 </r>
        <r>  0.0451  0.0218  0.0000  0.0074  0.0000  0.0000  0.0000  0.0000  0.0000 </r>
       </set>
       <set comment="band 12">
        <r>  0.0183  0.0608  0.0000  0.0608  0.0000  0.0000  0.0000  0.0000  0.0000 </r>
        <r>  0.0183  0.0608  0.0000  0.0608  0.0000  0.0000  0.0000  0.0000  0.0000 </r>
        <r>  0.0036  0.0639  0.0000  0.0012  0.0000  0.0000  0.0000  0.0000  0.0000 </r>
        <r>  0.0036  0.0639  0.0000  0.0012  0.0000  0.0000  0.0000  0.0000  0.0000 </r>
        <r>  0.0006  0.0547  0.0000  0.0393  0.0000  0.0000  0.0000  0.0000  0.0000 </r>
        <r>  0.0006  0.0547  0.0000  0.0393  0.0000  0.0000  0.0000  0.0000  0.0000 </r>
        <r>  0.0036  0.0639  0.0000  0.0012  0.0000  0.0000  0.0000  0.0000  0.0000 </r>
        <r>  0.0036  0.0639  0.0000  0.0012  0.0000  0.0000  0.0000  0.0000  0.0000 </r>
       </set>
       <set comment="band 13">
        <r>  0.0183  0.0608  0.0000  0.0608  0.0000  0.0000  0.0000  0.0000  0.0000 </r>
        <r>  0.0183  0.0608  0.0000  0.0608  0.0000  0.0000  0.0000  0.0000  0.0000 </r>
        <r>  0.0016  0.0207  0.0000  0.0637  0.0000  0.0000  0.0000  0.0000  0.0000 </r>
        <r>  0.0016  0.0207  0.0000  0.0637  0.0000  0.0000  0.0000  0.0000  0.0000 </r>
        <r>  0.0046  0.0004  0.0000  0.0550  0.0000  0.0000  0.0000  0.0000  0.0000 </r>
        <r>  0.0046  0.0004  0.0000  0.0550  0.0000  0.0000  0.0000  0.0000  0.0000 </r>
        <r>  0.0016  0.0207  0.0000  0.0637  0.0000  0.0000  0.0000  0.0000  0.0000 </r>
        <r>  0.0016  0.0207  0.0000  0.0637  0.0000  0.0000  0.0000  0.0000  0.0000 </r>
       </set>
       <set comment="band 14">
        <r>  0.0000  0.0000  0.0475  0.0000  0.0000  0.0000  0.0000  0.0000  0.0000 </r>
        <r>  0.0000  0.0000  0.0475  0.0000  0.0000  0.0000  0.0000  0.0000  0.0000 </r>
        <r>  0.0000  0.0000  0.0303  0.0000  0.0000  0.0000  0.0000  0.0000  0.0000 </r>
        <r>  0.0000  0.0000  0.0303  0.0000  0.0000  0.0000  0.0000  0.0000  0.0000 </r>
        <r>  0.0000  0.0000  0.1084  0.0000  0.0000  0.0000  0.0000  0.0000  0.0000 </r>
        <r>  0.0000  0.0000  0.1084  0.0000  0.0000  0.0000  0.0000  0.0000  0.0000 </r>
        <r>  0.0000  0.0000  0.0303  0.0000  0.0000  0.0000  0.0000  0.0000  0.0000 </r>
        <r>  0.0000  0.0000  0.0303  0.0000  0.0000  0.0000  0.0000  0.0000  0.0000 </r>
       </set>
       <set comment="band 15">
        <r>  0.0000  0.0000  0.0475  0.0000  0.0000  0.0000  0.0000  0.0000  0.0000 </r>
        <r>  0.0000  0.0000  0.0475  0.0000  0.0000  0.0000  0.0000  0.0000  0.0000 </r>
        <r>  0.0000  0.0000  0.0824  0.0000  0.0000  0.0000  0.0000  0.0000  0.0000 </r>
        <r>  0.0000  0.0000  0.0824  0.0000  0.0000  0.0000  0.0000  0.0000  0.0000 </r>
        <r>  0.0000  0.0000  0.0043  0.0000  0.0000  0.0000  0.0000  0.0000  0.0000 </r>
        <r>  0.0000  0.0000  0.0043  0.0000  0.0000  0.0000  0.0000  0.0000  0.0000 </r>
        <r>  0.0000  0.0000  0.0824  0.0000  0.0000  0.0000  0.0000  0.0000  0.0000 </r>
        <r>  0.0000  0.0000  0.0824  0.0000  0.0000  0.0000  0.0000  0.0000  0.0000 </r>
       </set>
       <set comment="band 16">
        <r>  0.0000  0.0000  0.0662  0.0000  0.0000  0.0000  0.0000  0.0000  0.0000 </r>
        <r>  0.0000  0.0000  0.0662  0.0000  0.0000  0.0000  0.0000  0.0000  0.0000 </r>
        <r>  0.0000  0.0000  0.0718  0.0000  0.0000  0.0000  0.0000  0.0000  0.0000 </r>
        <r>  0.0000  0.0000  0.0718  0.0000  0.0000  0.0000  0.0000  0.0000  0.0000 </r>
        <r>  0.0000  0.0000  0.0382  0.0000  0.0000  0.0000  0.0000  0.0000  0.0000 </r>
        <r>  0.0000  0.0000  0.0382  0.0000  0.0000  0.0000  0.0000  0.0000  0.0000 </r>
        <r>  0.0000  0.0000  0.0718  0.0000  0.0000  0.0000  0.0000  0.0000  0.0000 </r>
        <r>  0.0000  0.0000  0.0718  0.0000  0.0000  0.0000  0.0000  0.0000  0.0000 </r>
       </set>
       <set comment="band 17">
        <r>  0.0000  0.0000  0.0662  0.0000  0.0000  0.0000  0.0000  0.0000  0.0000 </r>
        <r>  0.0000  0.0000  0.0662  0.0000  0.0000  0.0000  0.0000  0.0000  0.0000 </r>
        <r>  0.0000  0.0000  0.0494  0.0000  0.0000  0.0000  0.0000  0.0000  0.0000 </r>
        <r>  0.0000  0.0000  0.0494  0.0000  0.0000  0.0000  0.0000  0.0000  0.0000 </r>
        <r>  0.0000  0.0000  0.0830  0.0000  0.0000  0.0000  0.0000  0.0000  0.0000 </r>
        <r>  0.0000  0.0000  0.0830  0.0000  0.0000  0.0000  0.0000  0.0000  0.0000 </r>
        <r>  0.0000  0.0000  0.0494  0.0000  0.0000  0.0000  0.0000  0.0000  0.0000 </r>
        <r>  0.0000  0.0000  0.0494  0.0000  0.0000  0.0000  0.0000  0.0000  0.0000 </r>
       </set>
       <set comment="band 18">
        <r>  0.0000  0.0006  0.0000  0.0006  0.0000  0.0000  0.0000  0.0000  0.0000 </r>
        <r>  0.0000  0.0006  0.0000  0.0006  0.0000  0.0000  0.0000  0.0000  0.0000 </r>
        <r>  0.0026  0.0001  0.0000  0.0001  0.0000  0.0000  0.0000  0.0000  0.0000 </r>
        <r>  0.0026  0.0001  0.0000  0.0001  0.0000  0.0000  0.0000  0.0000  0.0000 </r>
        <r>  0.0026  0.0000  0.0000  0.0002  0.0000  0.0000  0.0000  0.0000  0.0000 </r>
        <r>  0.0026  0.0000  0.0000  0.0002  0.0000  0.0000  0.0000  0.0000  0.0000 </r>
        <r>  0.0026  0.0001  0.0000  0.0001  0.0000  0.0000  0.0000  0.0000  0.0000 </r>
        <r>  0.0026  0.0001  0.0000  0.0001  0.0000  0.0000  0.0000  0.0000  0.0000 </r>
       </set>
       <set comment="band 19">
        <r>  0.0012  0.0000  0.0000  0.0000  0.0000  0.0000  0.0000  0.0000  0.0000 </r>
        <r>  0.0012  0.0000  0.0000  0.0000  0.0000  0.0000  0.0000  0.0000  0.0000 </r>
        <r>  0.0013  0.0007  0.0000  0.0013  0.0000  0.0000  0.0000  0.0000  0.0000 </r>
        <r>  0.0013  0.0007  0.0000  0.0013  0.0000  0.0000  0.0000  0.0000  0.0000 </r>
        <r>  0.0029  0.0000  0.0000  0.0019  0.0000  0.0000  0.0000  0.0000  0.0000 </r>
        <r>  0.0029  0.0000  0.0000  0.0019  0.0000  0.0000  0.0000  0.0000  0.0000 </r>
        <r>  0.0013  0.0007  0.0000  0.0013  0.0000  0.0000  0.0000  0.0000  0.0000 </r>
        <r>  0.0013  0.0007  0.0000  0.0013  0.0000  0.0000  0.0000  0.0000  0.0000 </r>
       </set>
       <set comment="band 20">
        <r>  0.0012  0.0000  0.0000  0.0000  0.0000  0.0000  0.0000  0.0000  0.0000 </r>
        <r>  0.0012  0.0000  0.0000  0.0000  0.0000  0.0000  0.0000  0.0000  0.0000 </r>
        <r>  0.0024  0.0018  0.0000  0.0001  0.0000  0.0000  0.0000  0.0000  0.0000 </r>
        <r>  0.0024  0.0018  0.0000  0.0001  0.0000  0.0000  0.0000  0.0000  0.0000 </r>
        <r>  0.0007  0.0008  0.0000  0.0011  0.0000  0.0000  0.0000  0.0000  0.0000 </r>
        <r>  0.0007  0.0008  0.0000  0.0011  0.0000  0.0000  0.0000  0.0000  0.0000 </r>
        <r>  0.0024  0.0018  0.0000  0.0001  0.0000  0.0000  0.0000  0.0000  0.0000 </r>
        <r>  0.0024  0.0018  0.0000  0.0001  0.0000  0.0000  0.0000  0.0000  0.0000 </r>
       </set>
       <set comment="band 21">
        <r>  0.0000  0.0000  0.0516  0.0000  0.0000  0.0000  0.0000  0.0000  0.0000 </r>
        <r>  0.0000  0.0000  0.0776  0.0000  0.0000  0.0000  0.0000  0.0000  0.0000 </r>
        <r>  0.0000  0.0000  0.0638  0.0000  0.0000  0.0000  0.0000  0.0000  0.0000 </r>
        <r>  0.0000  0.0000  0.0788  0.0000  0.0000  0.0000  0.0000  0.0000  0.0000 </r>
        <r>  0.0000  0.0000  0.0162  0.0000  0.0000  0.0000  0.0000  0.0000  0.0000 </r>
        <r>  0.0000  0.0000  0.0349  0.0000  0.0000  0.0000  0.0000  0.0000  0.0000 </r>
        <r>  0.0000  0.0000  0.0602  0.0000  0.0000  0.0000  0.0000  0.0000  0.0000 </r>
        <r>  0.0000  0.0000  0.0826  0.0000  0.0000  0.0000  0.0000  0.0000  0.0000 </r>
       </set>
       <set comment="band 22">
        <r>  0.0000  0.0000  0.0776  0.0000  0.0000  0.0000  0.0000  0.0000  0.0000 </r>
        <r>  0.0000  0.0000  0.0517  0.0000  0.0000  0.0000  0.0000  0.0000  0.0000 </r>
        <r>  0.0000  0.0000  0.0483  0.0000  0.0000  0.0000  0.0000  0.0000  0.0000 </r>
        <r>  0.0000  0.0000  0.0333  0.0000  0.0000  0.0000  0.0000  0.0000  0.0000 </r>
        <r>  0.0000  0.0000  0.0960  0.0000  0.0000  0.0000  0.0000  0.0000  0.0000 </r>
        <r>  0.0000  0.0000  0.0773  0.0000  0.0000  0.0000  0.0000  0.0000  0.0000 </r>
        <r>  0.0000  0.0000  0.0519  0.0000  0.0000  0.0000  0.0000  0.0000  0.0000 </r>
        <r>  0.0000  0.0000  0.0296  0.0000  0.0000  0.0000  0.0000  0.0000  0.0000 </r>
       </set>
       <set comment="band 23">
        <r>  0.0000  0.0000  0.0000  0.0000  0.0000  0.0000  0.0000  0.0000  0.0000 </r>
        <r>  0.0000  0.0000  0.0000  0.0000  0.0000  0.0000  0.0000  0.0000  0.0000 </r>
        <r>  0.0000  0.0000  0.0967  0.0000  0.0000  0.0000  0.0000  0.0000  0.0000 </r>
        <r>  0.0000  0.0000  0.0966  0.0000  0.0000  0.0000  0.0000  0.0000  0.0000 </r>
        <r>  0.0000  0.0000  0.0966  0.0000  0.0000  0.0000  0.0000  0.0000  0.0000 </r>
        <r>  0.0000  0.0000  0.0966  0.0000  0.0000  0.0000  0.0000  0.0000  0.0000 </r>
        <r>  0.0000  0.0000  0.0966  0.0000  0.0000  0.0000  0.0000  0.0000  0.0000 </r>
        <r>  0.0000  0.0000  0.0966  0.0000  0.0000  0.0000  0.0000  0.0000  0.0000 </r>
       </set>
       <set comment="band 24">
        <r>  0.0000  0.0000  0.0000  0.0000  0.0000  0.0000  0.0000  0.0000  0.0000 </r>
        <r>  0.0000  0.0000  0.0000  0.0000  0.0000  0.0000  0.0000  0.0000  0.0000 </r>
        <r>  0.0000  0.0000  0.0115  0.0000  0.0000  0.0000  0.0000  0.0000  0.0000 </r>
        <r>  0.0000  0.0000  0.0115  0.0000  0.0000  0.0000  0.0000  0.0000  0.0000 </r>
        <r>  0.0000  0.0000  0.0115  0.0000  0.0000  0.0000  0.0000  0.0000  0.0000 </r>
        <r>  0.0000  0.0000  0.0115  0.0000  0.0000  0.0000  0.0000  0.0000  0.0000 </r>
        <r>  0.0000  0.0000  0.0115  0.0000  0.0000  0.0000  0.0000  0.0000  0.0000 </r>
        <r>  0.0000  0.0000  0.0115  0.0000  0.0000  0.0000  0.0000  0.0000  0.0000 </r>
       </set>
      </set>
     </set>
    </set>
   </array>
  </projected>
 </calculation>
 <structure name="finalpos" >
  <crystal>
   <varray name="basis" >
    <v>       4.48084843       2.58701885       0.00000000 </v>
    <v>      -4.48084843       2.58701885       0.00000000 </v>
    <v>       0.00000000       0.00000000       8.52022140 </v>
   </varray>
   <i name="volume">    197.53348383 </i>
   <varray name="rec_basis" >
    <v>       0.11158601       0.19327265       0.00000000 </v>
    <v>      -0.11158601       0.19327265       0.00000000 </v>
    <v>       0.00000000       0.00000000       0.11736784 </v>
   </varray>
  </crystal>
  <varray name="positions" >
   <v>       0.33333300       0.66666600       0.25000000 </v>
   <v>       0.66666600       0.33333300       0.25000000 </v>
   <v>       0.15869124       0.31738348       0.25000000 </v>
   <v>       0.31738348       0.15869124       0.25000000 </v>
   <v>       0.15869124       0.84130776       0.25000000 </v>
   <v>       0.84130776       0.15869124       0.25000000 </v>
   <v>       0.68261552       0.84130776       0.25000000 </v>
   <v>       0.84130776       0.68261552       0.25000000 </v>
  </varray>
 </structure>
</modeling>
