cd Si                                   
   5.50000000000000     
     0.000000    0.494856    0.494856
     0.494856    0.000000    0.494856
     0.494856    0.494856    0.000000
   Si
     2
Direct
  0.875000  0.875000  0.875000
  0.125000  0.125000  0.125000
 
   40   40   40
  22.791      22.759      22.640      22.379      21.877      21.028      19.839      18.457      17.144      16.198    
  15.853      16.198      17.144      18.457      19.839      21.028      21.877      22.379      22.640      22.759    
  22.791      22.759      22.640      22.379      21.877      21.028      19.839      18.457      17.144      16.198    
  15.853      16.198      17.144      18.457      19.839      21.028      21.877      22.379      22.640      22.759    
  22.759      22.964      23.013      22.762      22.036      20.783      19.127      17.358      15.862      15.004    
  15.004      15.862      17.358      19.127      20.783      22.036      22.762      23.013      22.964      22.759    
  22.468      22.121      21.704      21.178      20.495      19.609      18.559      17.488      16.599      16.094    
  16.094      16.599      17.488      18.559      19.609      20.495      21.178      21.704      22.121      22.468    
  22.640      23.013      23.066      22.558      21.359      19.533      17.358      15.277      13.774      13.226    
  13.774      15.277      17.358      19.533      21.359      22.558      23.066      23.013      22.640      22.121    
  21.534      20.913      20.253      19.532      18.740      17.879      17.001      16.220      15.674      15.478    
  15.674      16.220      17.001      17.879      18.740      19.532      20.253      20.913      21.534      22.121    
  22.379      22.762      22.558      21.553      19.721      17.284      14.689      12.504      11.254      11.254    
  12.504      14.689      17.284      19.721      21.553      22.558      22.762      22.379      21.704      20.913    
  20.084      19.253      18.425      17.592      16.761      15.963      15.254      14.711      14.414      14.414    
  14.711      15.254      15.963      16.761      17.592      18.425      19.253      20.084      20.913      21.704    
  21.877      22.036      21.359      19.721      17.246      14.328      11.557      9.5666      8.8424      9.5666    
  11.557      14.328      17.246      19.721      21.359      22.036      21.877      21.178      20.253      19.253    
  18.254      17.291      16.375      15.508      14.706      14.001      13.442      13.079      12.953      13.079    
  13.442      14.001      14.706      15.508      16.375      17.291      18.254      19.253      20.253      21.178    
  21.028      20.783      19.533      17.284      14.328      11.207      8.5957      7.1070      7.1070      8.5957    
  11.207      14.328      17.284      19.533      20.783      21.028      20.495      19.532      18.425      17.291    
  16.199      15.180      14.248      13.412      12.687      12.099      11.682      11.465      11.465      11.682    
  12.099      12.687      13.412      14.248      15.180      16.199      17.291      18.425      19.532      20.495    
  19.839      19.127      17.358      14.689      11.557      8.5957      6.4753      5.7051      6.4753      8.5957    
  11.557      14.689      17.358      19.127      19.839      19.609      18.740      17.592      16.375      15.180    
  14.065      13.056      12.167      11.406      10.785      10.322      10.035      9.9377      10.035      10.322    
  10.785      11.406      12.167      13.056      14.065      15.180      16.375      17.592      18.740      19.609    
  18.457      17.358      15.277      12.504      9.5666      7.1070      5.7051      5.7051      7.1069      9.5666    
  12.504      15.277      17.358      18.457      18.559      17.879      16.761      15.508      14.248      13.056    
  11.976      11.028      10.221      9.5612      9.0553      8.7113      8.5370      8.5370      8.7113      9.0553    
  9.5612      10.221      11.028      11.976      13.056      14.248      15.508      16.761      17.879      18.559    
  17.144      15.862      13.774      11.254      8.8424      7.1070      6.4753      7.1069      8.8424      11.254    
  13.774      15.862      17.144      17.488      17.001      15.963      14.706      13.412      12.167      11.028    
  10.024      9.1702      8.4690      7.9214      7.5284      7.2916      7.2124      7.2916      7.5284      7.9214    
  8.4690      9.1702      10.024      11.028      12.167      13.412      14.706      15.963      17.001      17.488    
  16.198      15.004      13.226      11.254      9.5666      8.5957      8.5957      9.5666      11.254      13.226    
  15.004      16.198      16.599      16.220      15.254      14.001      12.687      11.406      10.221      9.1702    
  8.2716      7.5298      6.9427      6.5065      6.2176      6.0737      6.0737      6.2176      6.5065      6.9427    
  7.5298      8.2716      9.1702      10.221      11.406      12.687      14.001      15.254      16.220      16.599    
  15.853      15.004      13.774      12.504      11.557      11.207      11.557      12.504      13.774      15.004    
  15.853      16.094      15.674      14.711      13.442      12.099      10.785      9.5612      8.4690      7.5298    
  6.7499      6.1262      5.6516      5.3188      5.1215      5.0562      5.1215      5.3188      5.6516      6.1262    
  6.7499      7.5298      8.4690      9.5612      10.785      12.099      13.442      14.711      15.674      16.094    
  16.198      15.862      15.277      14.689      14.328      14.328      14.689      15.277      15.862      16.198    
  16.094      15.478      14.414      13.079      11.682      10.322      9.0553      7.9214      6.9427      6.1262    
  5.4680      4.9590      4.5884      4.3470      4.2280      4.2280      4.3470      4.5884      4.9590      5.4680    
  6.1262      6.9427      7.9214      9.0553      10.322      11.682      13.079      14.414      15.478      16.094    
  17.144      17.358      17.358      17.284      17.246      17.284      17.358      17.358      17.144      16.599    
  15.674      14.414      12.953      11.465      10.035      8.7113      7.5284      6.5065      5.6516      4.9590    
  4.4174      4.0133      3.7344      3.5710      3.5172      3.5710      3.7344      4.0133      4.4174      4.9590    
  5.6516      6.5065      7.5284      8.7113      10.035      11.465      12.953      14.414      15.674      16.599    
  18.457      19.127      19.533      19.721      19.721      19.533      19.127      18.457      17.488      16.220    
  14.711      13.079      11.465      9.9377      8.5370      7.2916      6.2176      5.3188      4.5884      4.0133    
  3.5773      3.2650      3.0640      2.9656      2.9656      3.0640      3.2650      3.5773      4.0133      4.5884    
  5.3188      6.2176      7.2916      8.5370      9.9377      11.465      13.079      14.711      16.220      17.488    
  19.839      20.783      21.359      21.553      21.359      20.783      19.839      18.559      17.001      15.254    
  13.442      11.682      10.035      8.5370      7.2124      6.0737      5.1215      4.3470      3.7344      3.2650    
  2.9207      2.6860      2.5497      2.5050      2.5497      2.6860      2.9207      3.2650      3.7344      4.3470    
  5.1215      6.0737      7.2124      8.5370      10.035      11.682      13.442      15.254      17.001      18.559    
  21.028      22.036      22.558      22.558      22.036      21.028      19.609      17.879      15.963      14.001    
  12.099      10.322      8.7113      7.2916      6.0737      5.0562      4.2280      3.5710      3.0640      2.6860    
  2.4187      2.2482      2.1652      2.1652      2.2482      2.4187      2.6860      3.0640      3.5710      4.2280    
  5.0562      6.0737      7.2916      8.7113      10.322      12.099      14.001      15.963      17.879      19.609    
  21.877      22.762      23.066      22.762      21.877      20.495      18.740      16.761      14.706      12.687    
  10.785      9.0553      7.5284      6.2176      5.1215      4.2280      3.5172      2.9656      2.5497      2.2482    
  2.0445      1.9268      1.8883      1.9268      2.0445      2.2482      2.5497      2.9656      3.5172      4.2280    
  5.1215      6.2176      7.5284      9.0553      10.785      12.687      14.706      16.761      18.740      20.495    
  22.379      23.013      23.013      22.379      21.178      19.532      17.592      15.508      13.412      11.406    
  9.5612      7.9214      6.5065      5.3188      4.3470      3.5710      2.9656      2.5050      2.1652      1.9268    
  1.7754      1.7019      1.7019      1.7754      1.9268      2.1652      2.5050      2.9656      3.5710      4.3470    
  5.3188      6.5065      7.9214      9.5612      11.406      13.412      15.508      17.592      19.532      21.178    
  22.640      22.964      22.640      21.704      20.253      18.425      16.375      14.248      12.167      10.221    
  8.4690      6.9427      5.6516      4.5884      3.7344      3.0640      2.5497      2.1652      1.8883      1.7019    
  1.5945      1.5594      1.5945      1.7019      1.8883      2.1652      2.5497      3.0640      3.7344      4.5884    
  5.6516      6.9427      8.4690      10.221      12.167      14.248      16.375      18.425      20.253      21.704    
  22.759      22.759      22.121      20.913      19.253      17.291      15.180      13.056      11.028      9.1702    
  7.5298      6.1262      4.9590      4.0133      3.2650      2.6860      2.2482      1.9268      1.7019      1.5594    
  1.4902      1.4902      1.5594      1.7019      1.9268      2.2482      2.6860      3.2650      4.0133      4.9590    
  6.1262      7.5298      9.1702      11.028      13.056      15.180      17.291      19.253      20.913      22.121    
  22.791      22.468      21.534      20.084      18.254      16.199      14.065      11.976      10.024      8.2716    
  6.7499      5.4680      4.4174      3.5773      2.9207      2.4187      2.0445      1.7754      1.5945      1.4902    
  1.4561      1.4902      1.5945      1.7754      2.0445      2.4187      2.9207      3.5773      4.4174      5.4680    
  6.7499      8.2716      10.024      11.976      14.065      16.199      18.254      20.084      21.534      22.468    
  22.759      22.121      20.913      19.253      17.291      15.180      13.056      11.028      9.1702      7.5298    
  6.1262      4.9590      4.0133      3.2650      2.6860      2.2482      1.9268      1.7019      1.5594      1.4902    
  1.4902      1.5594      1.7019      1.9268      2.2482      2.6860      3.2650      4.0133      4.9590      6.1262    
  7.5298      9.1702      11.028      13.056      15.180      17.291      19.253      20.913      22.121      22.759    
  22.640      21.704      20.253      18.425      16.375      14.248      12.167      10.221      8.4690      6.9427    
  5.6516      4.5884      3.7344      3.0640      2.5497      2.1652      1.8883      1.7019      1.5945      1.5594    
  1.5945      1.7019      1.8883      2.1652      2.5497      3.0640      3.7344      4.5884      5.6516      6.9427    
  8.4690      10.221      12.167      14.248      16.375      18.425      20.253      21.704      22.640      22.964    
  22.379      21.178      19.532      17.592      15.508      13.412      11.406      9.5612      7.9214      6.5065    
  5.3188      4.3470      3.5710      2.9656      2.5050      2.1652      1.9268      1.7754      1.7019      1.7019    
  1.7754      1.9268      2.1652      2.5050      2.9656      3.5710      4.3470      5.3188      6.5065      7.9214    
  9.5612      11.406      13.412      15.508      17.592      19.532      21.178      22.379      23.013      23.013    
  21.877      20.495      18.740      16.761      14.706      12.687      10.785      9.0553      7.5284      6.2176    
  5.1215      4.2280      3.5172      2.9656      2.5497      2.2482      2.0445      1.9268      1.8883      1.9268    
  2.0445      2.2482      2.5497      2.9656      3.5172      4.2280      5.1215      6.2176      7.5284      9.0553    
  10.785      12.687      14.706      16.761      18.740      20.495      21.877      22.762      23.066      22.762    
  21.028      19.609      17.879      15.963      14.001      12.099      10.322      8.7113      7.2916      6.0737    
  5.0562      4.2280      3.5710      3.0640      2.6860      2.4187      2.2482      2.1652      2.1652      2.2482    
  2.4187      2.6860      3.0640      3.5710      4.2280      5.0562      6.0737      7.2916      8.7113      10.322    
  12.099      14.001      15.963      17.879      19.609      21.028      22.036      22.558      22.558      22.036    
  19.839      18.559      17.001      15.254      13.442      11.682      10.035      8.5370      7.2124      6.0737    
  5.1215      4.3470      3.7344      3.2650      2.9207      2.6860      2.5497      2.5050      2.5497      2.6860    
  2.9207      3.2650      3.7344      4.3470      5.1215      6.0737      7.2124      8.5370      10.035      11.682    
  13.442      15.254      17.001      18.559      19.839      20.783      21.359      21.553      21.359      20.783    
  18.457      17.488      16.220      14.711      13.079      11.465      9.9377      8.5370      7.2916      6.2176    
  5.3188      4.5884      4.0133      3.5773      3.2650      3.0640      2.9656      2.9656      3.0640      3.2650    
  3.5773      4.0133      4.5884      5.3188      6.2176      7.2916      8.5370      9.9377      11.465      13.079    
  14.711      16.220      17.488      18.457      19.127      19.533      19.721      19.721      19.533      19.127    
  17.144      16.599      15.674      14.414      12.953      11.465      10.035      8.7113      7.5284      6.5065    
  5.6516      4.9590      4.4174      4.0133      3.7344      3.5710      3.5172      3.5710      3.7344      4.0133    
  4.4174      4.9590      5.6516      6.5065      7.5284      8.7113      10.035      11.465      12.953      14.414    
  15.674      16.599      17.144      17.358      17.358      17.284      17.246      17.284      17.358      17.358    
  16.198      16.094      15.478      14.414      13.079      11.682      10.322      9.0553      7.9214      6.9427    
  6.1262      5.4680      4.9590      4.5884      4.3470      4.2280      4.2280      4.3470      4.5884      4.9590    
  5.4680      6.1262      6.9427      7.9214      9.0553      10.322      11.682      13.079      14.414      15.478    
  16.094      16.198      15.862      15.277      14.689      14.328      14.328      14.689      15.277      15.862    
  15.853      16.094      15.674      14.711      13.442      12.099      10.785      9.5612      8.4690      7.5298    
  6.7499      6.1262      5.6516      5.3188      5.1215      5.0562      5.1215      5.3188      5.6516      6.1262    
  6.7499      7.5298      8.4690      9.5612      10.785      12.099      13.442      14.711      15.674      16.094    
  15.853      15.004      13.774      12.504      11.557      11.207      11.557      12.504      13.774      15.004    
  16.198      16.599      16.220      15.254      14.001      12.687      11.406      10.221      9.1702      8.2716    
  7.5298      6.9427      6.5065      6.2176      6.0737      6.0737      6.2176      6.5065      6.9427      7.5298    
  8.2716      9.1702      10.221      11.406      12.687      14.001      15.254      16.220      16.599      16.198    
  15.004      13.226      11.254      9.5666      8.5957      8.5957      9.5666      11.254      13.226      15.004    
  17.144      17.488      17.001      15.963      14.706      13.412      12.167      11.028      10.024      9.1702    
  8.4690      7.9214      7.5284      7.2916      7.2124      7.2916      7.5284      7.9214      8.4690      9.1702    
  10.024      11.028      12.167      13.412      14.706      15.963      17.001      17.488      17.144      15.862    
  13.774      11.254      8.8424      7.1069      6.4753      7.1070      8.8424      11.254      13.774      15.862    
  18.457      18.559      17.879      16.761      15.508      14.248      13.056      11.976      11.028      10.221    
  9.5612      9.0553      8.7113      8.5370      8.5370      8.7113      9.0553      9.5612      10.221      11.028    
  11.976      13.056      14.248      15.508      16.761      17.879      18.559      18.457      17.358      15.277    
  12.504      9.5666      7.1069      5.7051      5.7051      7.1070      9.5666      12.504      15.277      17.358    
  19.839      19.609      18.740      17.592      16.375      15.180      14.065      13.056      12.167      11.406    
  10.785      10.322      10.035      9.9377      10.035      10.322      10.785      11.406      12.167      13.056    
  14.065      15.180      16.375      17.592      18.740      19.609      19.839      19.127      17.358      14.689    
  11.557      8.5957      6.4753      5.7051      6.4753      8.5957      11.557      14.689      17.358      19.127    
  21.028      20.495      19.532      18.425      17.291      16.199      15.180      14.248      13.412      12.687    
  12.099      11.682      11.465      11.465      11.682      12.099      12.687      13.412      14.248      15.180    
  16.199      17.291      18.425      19.532      20.495      21.028      20.783      19.533      17.284      14.328    
  11.207      8.5957      7.1070      7.1070      8.5957      11.207      14.328      17.284      19.533      20.783    
  21.877      21.178      20.253      19.253      18.254      17.291      16.375      15.508      14.706      14.001    
  13.442      13.079      12.953      13.079      13.442      14.001      14.706      15.508      16.375      17.291    
  18.254      19.253      20.253      21.178      21.877      22.036      21.359      19.721      17.246      14.328    
  11.557      9.5666      8.8424      9.5666      11.557      14.328      17.246      19.721      21.359      22.036    
  22.379      21.704      20.913      20.084      19.253      18.425      17.592      16.761      15.963      15.254    
  14.711      14.414      14.414      14.711      15.254      15.963      16.761      17.592      18.425      19.253    
  20.084      20.913      21.704      22.379      22.762      22.558      21.553      19.721      17.284      14.689    
  12.504      11.254      11.254      12.504      14.689      17.284      19.721      21.553      22.558      22.762    
  22.640      22.121      21.534      20.913      20.253      19.532      18.740      17.879      17.001      16.220    
  15.674      15.478      15.674      16.220      17.001      17.879      18.740      19.532      20.253      20.913    
  21.534      22.121      22.640      23.013      23.066      22.558      21.359      19.533      17.358      15.277    
  13.774      13.226      13.774      15.277      17.358      19.533      21.359      22.558      23.066      23.013    
  22.759      22.468      22.121      21.704      21.178      20.495      19.609      18.559      17.488      16.599    
  16.094      16.094      16.599      17.488      18.559      19.609      20.495      21.178      21.704      22.121    
  22.468      22.759      22.964      23.013      22.762      22.036      20.783      19.127      17.358      15.862    
  15.004      15.004      15.862      17.358      19.127      20.783      22.036      22.762      23.013      22.964    
  22.759      22.964      23.013      22.762      22.036      20.783      19.127      17.358      15.862      15.004    
  15.004      15.862      17.358      19.127      20.783      22.036      22.762      23.013      22.964      22.759    
  22.468      22.121      21.704      21.178      20.495      19.609      18.559      17.488      16.599      16.094    
  16.094      16.599      17.488      18.559      19.609      20.495      21.178      21.704      22.121      22.468    
  22.964      23.342      23.384      22.842      21.585      19.681      17.420      15.260      13.701      13.133    
  13.701      15.260      17.420      19.681      21.585      22.842      23.384      23.342      22.964      22.436    
  21.840      21.209      20.539      19.806      18.998      18.115      17.211      16.405      15.842      15.639    
  15.842      16.405      17.211      18.115      18.998      19.806      20.539      21.209      21.840      22.436    
  23.013      23.384      23.118      21.992      19.988      17.345      14.544      12.192      10.847      10.847    
  12.192      14.544      17.345      19.988      21.992      23.118      23.384      23.013      22.319      21.503    
  20.649      19.793      18.938      18.077      17.215      16.384      15.639      15.066      14.752      14.752    
  15.066      15.639      16.384      17.215      18.077      18.938      19.793      20.649      21.503      22.319    
  22.762      22.842      21.992      20.085      17.268      13.981      10.877      8.6538      7.8460      8.6538    
  10.877      13.981      17.268      20.085      21.992      22.842      22.762      22.063      21.098      20.055    
  19.011      18.005      17.046      16.136      15.291      14.544      13.950      13.564      13.429      13.564    
  13.950      14.544      15.291      16.136      17.046      18.005      19.011      20.055      21.098      22.063    
  22.036      21.585      19.988      17.268      13.768      10.114      7.0745      5.3466      5.3466      7.0745    
  10.114      13.768      17.268      19.988      21.585      22.036      21.577      20.590      19.425      18.229    
  17.075      15.997      15.008      14.118      13.343      12.713      12.263      12.028      12.028      12.263    
  12.713      13.343      14.118      15.008      15.997      17.075      18.229      19.425      20.590      21.577    
  20.783      19.681      17.345      13.981      10.114      6.4999      3.9269      2.9947      3.9269      6.4999    
  10.114      13.981      17.345      19.681      20.783      20.759      19.939      18.741      17.450      16.178    
  14.988      13.910      12.956      12.136      11.465      10.962      10.650      10.543      10.650      10.962    
  11.465      12.136      12.956      13.910      14.988      16.178      17.450      18.741      19.939      20.759    
  19.127      17.420      14.544      10.877      7.0745      3.9269      2.1433      2.1433      3.9269      7.0745    
  10.877      14.544      17.420      19.127      19.613      19.105      17.993      16.671      15.328      14.050    
  12.888      11.865      10.991      10.274      9.7221      9.3454      9.1540      9.1540      9.3454      9.7221    
  10.274      10.991      11.865      12.888      14.050      15.328      16.671      17.993      19.105      19.613    
  17.358      15.260      12.192      8.6538      5.3466      2.9947      2.1433      2.9947      5.3466      8.6538    
  12.192      15.260      17.358      18.281      18.122      17.193      15.899      14.528      13.196      11.967    
  10.881      9.9526      9.1876      8.5880      8.1562      7.8953      7.8080      7.8953      8.1562      8.5880    
  9.1876      9.9526      10.881      11.967      13.196      14.528      15.899      17.193      18.122      18.281    
  15.862      13.701      10.847      7.8460      5.3466      3.9269      3.9269      5.3466      7.8460      10.847    
  13.701      15.862      17.015      17.122      16.388      15.163      13.794      12.433      11.159      10.022    
  9.0435      8.2326      7.5885      7.1083      6.7894      6.6303      6.6303      6.7894      7.1083      7.5885    
  8.2326      9.0435      10.022      11.159      12.433      13.794      15.163      16.388      17.122      17.015    
  15.004      13.133      10.847      8.6538      7.0745      6.4999      7.0745      8.6538      10.847      13.133    
  15.004      16.102      16.293      15.675      14.517      13.152      11.776      10.472      9.2942      8.2735    
  7.4212      6.7366      6.2140      5.8464      5.6282      5.5559      5.6282      5.8464      6.2140      6.7366    
  7.4212      8.2735      9.2942      10.472      11.776      13.152      14.517      15.675      16.293      16.102    
  15.004      13.701      12.192      10.877      10.114      10.114      10.877      12.192      13.701      15.004    
  15.769      15.822      15.179      14.027      12.647      11.248      9.9149      8.7025      7.6445      6.7549    
  6.0339      5.4740      5.0652      4.7983      4.6665      4.6665      4.7983      5.0652      5.4740      6.0339    
  6.7549      7.6445      8.7025      9.9149      11.248      12.647      14.027      15.179      15.822      15.769    
  15.862      15.260      14.544      13.981      13.768      13.981      14.544      15.260      15.862      16.102    
  15.822      15.001      13.760      12.320      10.875      9.5018      8.2512      7.1557      6.2301      5.4748    
  4.8812      4.4368      4.1293      3.9489      3.8894      3.9489      4.1293      4.4368      4.8812      5.4748    
  6.2301      7.1557      8.2512      9.5018      10.875      12.320      13.760      15.001      15.822      16.102    
  17.358      17.420      17.345      17.268      17.268      17.345      17.420      17.358      17.015      16.293    
  15.179      13.760      12.207      10.681      9.2467      7.9458      6.8064      5.8417      5.0511      4.4248    
  3.9479      3.6055      3.3847      3.2765      3.2765      3.3847      3.6055      3.9479      4.4248      5.0511    
  5.8417      6.8064      7.9458      9.2467      10.681      12.207      13.760      15.179      16.293      17.015    
  19.127      19.681      19.988      20.085      19.988      19.681      19.127      18.281      17.122      15.675    
  14.027      12.320      10.681      9.1604      7.7914      6.5966      5.5852      4.7549      4.0936      3.5846    
  3.2101      2.9542      2.8055      2.7567      2.8055      2.9542      3.2101      3.5846      4.0936      4.7549    
  5.5852      6.5966      7.7914      9.1604      10.681      12.320      14.027      15.675      17.122      18.281    
  20.783      21.585      21.992      21.992      21.585      20.783      19.613      18.122      16.388      14.517    
  12.647      10.875      9.2467      7.7914      6.5266      5.4578      4.5797      3.8784      3.3345      2.9276    
  2.6393      2.4552      2.3655      2.3655      2.4552      2.6394      2.9276      3.3345      3.8784      4.5797    
  5.4578      6.5266      7.7914      9.2467      10.875      12.647      14.517      16.388      18.122      19.613    
  22.036      22.842      23.118      22.842      22.036      20.759      19.105      17.193      15.163      13.152    
  11.248      9.5018      7.9458      6.5966      5.4578      4.5218      3.7724      3.1882      2.7461      2.4251    
  2.2079      2.0824      2.0413      2.0824      2.2079      2.4251      2.7461      3.1882      3.7724      4.5218    
  5.4578      6.5966      7.9458      9.5018      11.248      13.152      15.163      17.193      19.105      20.759    
  22.762      23.384      23.384      22.762      21.577      19.939      17.993      15.899      13.794      11.776    
  9.9149      8.2512      6.8064      5.5852      4.5797      3.7724      3.1400      2.6574      2.3007      2.0503    
  1.8912      1.8140      1.8140      1.8912      2.0503      2.3007      2.6574      3.1400      3.7724      4.5797    
  5.5852      6.8064      8.2512      9.9149      11.776      13.794      15.899      17.993      19.939      21.577    
  23.013      23.342      23.013      22.063      20.590      18.741      16.671      14.528      12.433      10.472    
  8.7025      7.1557      5.8417      4.7549      3.8784      3.1882      2.6574      2.2600      1.9736      1.7808    
  1.6696      1.6333      1.6696      1.7808      1.9736      2.2600      2.6574      3.1882      3.8784      4.7549    
  5.8417      7.1557      8.7025      10.472      12.433      14.528      16.671      18.741      20.590      22.063    
  22.964      22.964      22.319      21.098      19.425      17.450      15.328      13.196      11.159      9.2942    
  7.6445      6.2301      5.0511      4.0936      3.3345      2.7461      2.3007      1.9736      1.7447      1.5995    
  1.5291      1.5291      1.5995      1.7447      1.9736      2.3007      2.7461      3.3345      4.0936      5.0511    
  6.2301      7.6445      9.2942      11.159      13.196      15.328      17.450      19.425      21.098      22.319    
  22.759      22.436      21.503      20.055      18.229      16.178      14.050      11.967      10.022      8.2735    
  6.7549      5.4748      4.4248      3.5846      2.9276      2.4251      2.0503      1.7808      1.5995      1.4951    
  1.4610      1.4951      1.5995      1.7808      2.0503      2.4251      2.9276      3.5846      4.4248      5.4748    
  6.7549      8.2735      10.022      11.967      14.050      16.178      18.229      20.055      21.503      22.436    
  22.468      21.840      20.649      19.011      17.075      14.988      12.888      10.881      9.0435      7.4212    
  6.0339      4.8812      3.9479      3.2101      2.6393      2.2079      1.8912      1.6696      1.5291      1.4610    
  1.4610      1.5291      1.6696      1.8912      2.2079      2.6393      3.2101      3.9479      4.8812      6.0339    
  7.4212      9.0435      10.881      12.888      14.988      17.075      19.011      20.649      21.840      22.468    
  22.121      21.209      19.793      18.005      15.997      13.910      11.865      9.9526      8.2326      6.7366    