 vasp.5.4.4.18Apr17-6-g9f103f2a35 (build Mar 30 2023 15:39:25) complex          
  
 executed on             LinuxIFC date 2023.05.02  16:58:37
 running on   12 total cores
 distrk:  each k-point on   12 cores,    1 groups
 distr:  one band on NCORES_PER_BAND=   1 cores,   12 groups


--------------------------------------------------------------------------------------------------------


 INCAR:
 POTCAR:    PAW_PBE Si 05Jan2001                  

 ----------------------------------------------------------------------------- 
|                                                                             |
|           W    W    AA    RRRRR   N    N  II  N    N   GGGG   !!!           |
|           W    W   A  A   R    R  NN   N  II  NN   N  G    G  !!!           |
|           W    W  A    A  R    R  N N  N  II  N N  N  G       !!!           |
|           W WW W  AAAAAA  RRRRR   N  N N  II  N  N N  G  GGG   !            |
|           WW  WW  A    A  R   R   N   NN  II  N   NN  G    G                |
|           W    W  A    A  R    R  N    N  II  N    N   GGGG   !!!           |
|                                                                             |
|      For optimal performance we recommend to set                            |
|        NCORE= 4 - approx SQRT( number of cores)                             |
|      NCORE specifies how many cores store one orbital (NPAR=cpu/NCORE).     |
|      This setting can  greatly improve the performance of VASP for DFT.     |
|      The default,   NCORE=1            might be grossly inefficient         |
|      on modern multi-core architectures or massively parallel machines.     |
|      Do your own testing !!!!                                               |
|      Unfortunately you need to use the default for GW and RPA calculations. |
|      (for HF NCORE is supported but not extensively tested yet)             |
|                                                                             |
 ----------------------------------------------------------------------------- 

 POTCAR:    PAW_PBE Si 05Jan2001                  
   SHA256 =  79d9987ad8750f624c4d6acb2a16d13abf6a777132adc04dc6c8399be72b42bb Si
   COPYR  = (c) Copyright 05Jan2001 Georg Kresse                                
   COPYR  = This file is part of the software VASP. Any use, copying, and all ot
   COPYR  = If you do not have a valid VASP license, you may not use, copy or di
   VRHFIN =Si: s2p2                                                             
   LEXCH  = PE                                                                  
   EATOM  =   103.0669 eV,    7.5752 Ry                                         
                                                                                
   TITEL  = PAW_PBE Si 05Jan2001                                                
   LULTRA =        F    use ultrasoft PP ?                                      
   IUNSCR =        1    unscreen: 0-lin 1-nonlin 2-no                           
   RPACOR =    1.500    partial core radius                                     
   POMASS =   28.085; ZVAL   =    4.000    mass and valenz                      
   RCORE  =    1.900    outmost cutoff radius                                   
   RWIGS  =    2.480; RWIGS  =    1.312    wigner-seitz radius (au A)           
   ENMAX  =  245.345; ENMIN  =  184.009 eV                                      
   ICORE  =        2    local potential                                         
   LCOR   =        T    correct aug charges                                     
   LPAW   =        T    paw PP                                                  
   EAUG   =  322.069                                                            
   DEXC   =    0.000                                                            
   RMAX   =    1.950    core radius for proj-oper                               
   RAUG   =    1.300    factor for augmentation sphere                          
   RDEP   =    1.993    radius for radial grids                                 
   RDEPT  =    1.837    core radius for aug-charge                              
                                                                                
   Atomic configuration                                                         
    6 entries                                                                   
     n  l   j            E        occ.                                          
     1  0  0.50     -1785.8828   2.0000                                         
     2  0  0.50      -139.4969   2.0000                                         
     2  1  1.50       -95.5546   6.0000                                         
     3  0  0.50       -10.8127   2.0000                                         
     3  1  0.50        -4.0811   2.0000                                         
     3  2  1.50        -4.0817   0.0000                                         
   Description                                                                  
     l       E           TYP  RCUT    TYP  RCUT                                 
     0    -10.8127223     23  1.900                                             
     0     -7.6451159     23  1.900                                             
     1     -4.0811372     23  1.900                                             
     1      2.4879257     23  1.900                                             
     2     -4.0817478      7  1.900                                             
  local pseudopotential read in
  partial core-charges read in
  partial kinetic energy density read in
  atomic valenz-charges read in
  non local Contribution for L=           0  read in
    real space projection operators read in
  non local Contribution for L=           0  read in
    real space projection operators read in
  non local Contribution for L=           1  read in
    real space projection operators read in
  non local Contribution for L=           1  read in
    real space projection operators read in
    PAW grid and wavefunctions read in
 
   number of l-projection  operators is LMAX  =           4
   number of lm-projection operators is LMMAX =           8
 
  PAW_PBE Si 05Jan2001                  :
 energy of atom  1       EATOM= -103.0669
 kinetic energy error for atom=    0.0061 (will be added to EATOM!!)
 
 
 POSCAR: cd:                                     
  positions in direct lattice
  No initial velocities read in
 exchange correlation table for  LEXCH =        8
   RHO(1)=    0.500       N(1)  =     2000
   RHO(2)=  100.500       N(2)  =     4000
 


--------------------------------------------------------------------------------------------------------


 ion  position               nearest neighbor table
   1  0.875  0.875  0.875-   2 2.38   2 2.38   2 2.38   2 2.38
   2  0.125  0.125  0.125-   1 2.38   1 2.38   1 2.38   1 2.38
 
  LATTYP: Found a face centered cubic cell.
 ALAT       =     5.5000000000
  
  Lattice vectors:
  
 A1 = (   0.0000000000,   2.7500000000,   2.7500000000)
 A2 = (   2.7500000000,   0.0000000000,   2.7500000000)
 A3 = (   2.7500000000,   2.7500000000,   0.0000000000)


Analysis of symmetry for initial positions (statically):
=====================================================================
 Subroutine PRICEL returns:
 Original cell was already a primitive cell.
 

 Routine SETGRP: Setting up the symmetry group for a 
 face centered cubic supercell.


 Subroutine GETGRP returns: Found 48 space group operations
 (whereof 12 operations were pure point group operations)
 out of a pool of 48 trial point group operations.


The static configuration has the point symmetry D_3d.
 The point group associated with its full space group is O_h .


Analysis of symmetry for dynamics (positions and initial velocities):
=====================================================================
 Subroutine PRICEL returns:
 Original cell was already a primitive cell.
 

 Routine SETGRP: Setting up the symmetry group for a 
 face centered cubic supercell.


 Subroutine GETGRP returns: Found 48 space group operations
 (whereof 12 operations were pure point group operations)
 out of a pool of 48 trial point group operations.


The dynamic configuration has the point symmetry D_3d.
 The point group associated with its full space group is O_h .


 Subroutine INISYM returns: Found 48 space group operations
 (whereof 12 operations are pure point group operations),
 and found     1 'primitive' translations

 
 
 KPOINTS: k-points                                

Automatic generation of k-mesh.
Space group operators:
 irot       det(A)        alpha          n_x          n_y          n_z        tau_x        tau_y        tau_z
    1     1.000000     0.000000     1.000000     0.000000     0.000000     0.000000     0.000000     0.000000
    2    -1.000000     0.000000     1.000000     0.000000     0.000000     0.000000     0.000000     0.000000
    3     1.000000   120.000000    -0.577350    -0.577350    -0.577350     0.000000     0.000000     0.000000
    4    -1.000000   120.000000    -0.577350    -0.577350    -0.577350     0.000000     0.000000     0.000000
    5     1.000000   120.000000     0.577350     0.577350     0.577350     0.000000     0.000000     0.000000
    6    -1.000000   120.000000     0.577350     0.577350     0.577350     0.000000     0.000000     0.000000
    7     1.000000   180.000000     0.000000    -0.707107     0.707107     0.000000     0.000000     0.000000
    8    -1.000000   180.000000     0.000000    -0.707107     0.707107     0.000000     0.000000     0.000000
    9     1.000000   180.000000     0.707107    -0.707107     0.000000     0.000000     0.000000     0.000000
   10    -1.000000   180.000000     0.707107    -0.707107     0.000000     0.000000     0.000000     0.000000
   11     1.000000   180.000000     0.707107     0.000000    -0.707107     0.000000     0.000000     0.000000
   12    -1.000000   180.000000     0.707107     0.000000    -0.707107     0.000000     0.000000     0.000000
   13     1.000000    90.000000     0.000000     0.000000    -1.000000     0.500000     0.000000     0.000000
   14    -1.000000    90.000000     0.000000     0.000000    -1.000000     0.500000     0.000000     0.000000
   15     1.000000   180.000000     0.000000     0.707107     0.707107     0.500000     0.000000     0.000000
   16    -1.000000   180.000000     0.000000     0.707107     0.707107     0.500000     0.000000     0.000000
   17     1.000000    90.000000     0.000000     1.000000     0.000000     0.500000     0.000000     0.000000
   18    -1.000000    90.000000     0.000000     1.000000     0.000000     0.500000     0.000000     0.000000
   19     1.000000   180.000000     0.000000     0.000000     1.000000     0.000000     0.000000     0.500000
   20    -1.000000   180.000000     0.000000     0.000000     1.000000     0.000000     0.000000     0.500000
   21     1.000000   120.000000    -0.577350     0.577350     0.577350     0.000000     0.000000     0.500000
   22    -1.000000   120.000000    -0.577350     0.577350     0.577350     0.000000     0.000000     0.500000
   23     1.000000   120.000000    -0.577350     0.577350    -0.577350     0.000000     0.000000     0.500000
   24    -1.000000   120.000000    -0.577350     0.577350    -0.577350     0.000000     0.000000     0.500000
   25     1.000000    90.000000     0.000000     0.000000     1.000000     0.000000     0.500000     0.000000
   26    -1.000000    90.000000     0.000000     0.000000     1.000000     0.000000     0.500000     0.000000
   27     1.000000    90.000000    -1.000000     0.000000     0.000000     0.000000     0.500000     0.000000
   28    -1.000000    90.000000    -1.000000     0.000000     0.000000     0.000000     0.500000     0.000000
   29     1.000000   180.000000     0.707107     0.000000     0.707107     0.000000     0.500000     0.000000
   30    -1.000000   180.000000     0.707107     0.000000     0.707107     0.000000     0.500000     0.000000
   31     1.000000   120.000000     0.577350    -0.577350     0.577350     0.500000     0.000000     0.000000
   32    -1.000000   120.000000     0.577350    -0.577350     0.577350     0.500000     0.000000     0.000000
   33     1.000000   120.000000    -0.577350    -0.577350     0.577350     0.500000     0.000000     0.000000
   34    -1.000000   120.000000    -0.577350    -0.577350     0.577350     0.500000     0.000000     0.000000
   35     1.000000   180.000000     1.000000     0.000000     0.000000     0.500000     0.000000     0.000000
   36    -1.000000   180.000000     1.000000     0.000000     0.000000     0.500000     0.000000     0.000000
   37     1.000000    90.000000     0.000000    -1.000000     0.000000     0.000000     0.000000     0.500000
   38    -1.000000    90.000000     0.000000    -1.000000     0.000000     0.000000     0.000000     0.500000
   39     1.000000   180.000000     0.707107     0.707107     0.000000     0.000000     0.000000     0.500000
   40    -1.000000   180.000000     0.707107     0.707107     0.000000     0.000000     0.000000     0.500000
   41     1.000000    90.000000     1.000000     0.000000     0.000000     0.000000     0.000000     0.500000
   42    -1.000000    90.000000     1.000000     0.000000     0.000000     0.000000     0.000000     0.500000
   43     1.000000   120.000000     0.577350    -0.577350    -0.577350     0.000000     0.500000     0.000000
   44    -1.000000   120.000000     0.577350    -0.577350    -0.577350     0.000000     0.500000     0.000000
   45     1.000000   180.000000     0.000000     1.000000     0.000000     0.000000     0.500000     0.000000
   46    -1.000000   180.000000     0.000000     1.000000     0.000000     0.000000     0.500000     0.000000
   47     1.000000   120.000000     0.577350     0.577350    -0.577350     0.000000     0.500000     0.000000
   48    -1.000000   120.000000     0.577350     0.577350    -0.577350     0.000000     0.500000     0.000000
 
 Subroutine IBZKPT returns following result:
 ===========================================
 
 Found     56 irreducible k-points:
 
 Following reciprocal coordinates:
            Coordinates               Weight
  0.000000  0.000000  0.000000      1.000000
  0.090909  0.000000  0.000000      8.000000
  0.181818  0.000000  0.000000      8.000000
  0.272727  0.000000  0.000000      8.000000
  0.363636  0.000000  0.000000      8.000000
  0.454545  0.000000  0.000000      8.000000
  0.090909  0.090909  0.000000      6.000000
  0.181818  0.090909  0.000000     24.000000
  0.272727  0.090909  0.000000     24.000000
  0.363636  0.090909  0.000000     24.000000
  0.454545  0.090909  0.000000     24.000000
 -0.454545  0.090909  0.000000     24.000000
 -0.363636  0.090909  0.000000     24.000000
 -0.272727  0.090909  0.000000     24.000000
 -0.181818  0.090909  0.000000     24.000000
 -0.090909  0.090909  0.000000     12.000000
  0.181818  0.181818  0.000000      6.000000
  0.272727  0.181818  0.000000     24.000000
  0.363636  0.181818  0.000000     24.000000
  0.454545  0.181818  0.000000     24.000000
 -0.454545  0.181818  0.000000     24.000000
 -0.363636  0.181818  0.000000     24.000000
 -0.272727  0.181818  0.000000     24.000000
 -0.181818  0.181818  0.000000     12.000000
  0.272727  0.272727  0.000000      6.000000
  0.363636  0.272727  0.000000     24.000000
  0.454545  0.272727  0.000000     24.000000
 -0.454545  0.272727  0.000000     24.000000
 -0.363636  0.272727  0.000000     24.000000
 -0.272727  0.272727  0.000000     12.000000
  0.363636  0.363636  0.000000      6.000000
  0.454545  0.363636  0.000000     24.000000
 -0.454545  0.363636  0.000000     24.000000
 -0.363636  0.363636  0.000000     12.000000
  0.454545  0.454545  0.000000      6.000000
 -0.454545  0.454545  0.000000     12.000000
  0.272727  0.181818  0.090909     24.000000
  0.363636  0.181818  0.090909     48.000000
  0.454545  0.181818  0.090909     48.000000
 -0.454545  0.181818  0.090909     48.000000
  0.363636  0.272727  0.090909     24.000000
  0.454545  0.272727  0.090909     48.000000
 -0.454545  0.272727  0.090909     48.000000
 -0.363636  0.272727  0.090909     48.000000
 -0.272727  0.272727  0.090909     48.000000
 -0.181818  0.272727  0.090909     24.000000
  0.454545  0.363636  0.090909     24.000000
 -0.454545  0.363636  0.090909     48.000000
 -0.363636  0.363636  0.090909     48.000000
 -0.272727  0.363636  0.090909     24.000000
 -0.454545  0.454545  0.090909     24.000000
 -0.363636  0.454545  0.090909     24.000000
 -0.454545  0.363636  0.181818     24.000000
 -0.363636  0.363636  0.181818     48.000000
 -0.363636  0.454545  0.181818     24.000000
 -0.272727  0.454545  0.181818     24.000000
 
 Following cartesian coordinates:
            Coordinates               Weight
  0.000000  0.000000  0.000000      1.000000
 -0.090909  0.090909  0.090909      8.000000
 -0.181818  0.181818  0.181818      8.000000
 -0.272727  0.272727  0.272727      8.000000
 -0.363636  0.363636  0.363636      8.000000
 -0.454545  0.454545  0.454545      8.000000
  0.000000  0.000000  0.181818      6.000000
 -0.090909  0.090909  0.272727     24.000000
 -0.181818  0.181818  0.363636     24.000000
 -0.272727  0.272727  0.454545     24.000000
 -0.363636  0.363636  0.545455     24.000000
  0.545455 -0.545455 -0.363636     24.000000
  0.454545 -0.454545 -0.272727     24.000000
  0.363636 -0.363636 -0.181818     24.000000
  0.272727 -0.272727 -0.090909     24.000000
  0.181818 -0.181818  0.000000     12.000000
  0.000000  0.000000  0.363636      6.000000
 -0.090909  0.090909  0.454545     24.000000
 -0.181818  0.181818  0.545455     24.000000
 -0.272727  0.272727  0.636364     24.000000
  0.636364 -0.636364 -0.272727     24.000000
  0.545455 -0.545455 -0.181818     24.000000
  0.454545 -0.454545 -0.090909     24.000000
  0.363636 -0.363636  0.000000     12.000000
  0.000000  0.000000  0.545455      6.000000
 -0.090909  0.090909  0.636364     24.000000
 -0.181818  0.181818  0.727273     24.000000
  0.727273 -0.727273 -0.181818     24.000000
  0.636364 -0.636364 -0.090909     24.000000
  0.545455 -0.545455  0.000000     12.000000
  0.000000  0.000000  0.727273      6.000000
 -0.090909  0.090909  0.818182     24.000000
  0.818182 -0.818182 -0.090909     24.000000
  0.727273 -0.727273  0.000000     12.000000
  0.000000  0.000000  0.909091      6.000000
  0.909091 -0.909091 -0.000000     12.000000
 -0.000000  0.181818  0.363636     24.000000
 -0.090909  0.272727  0.454545     48.000000
 -0.181818  0.363636  0.545455     48.000000
  0.727273 -0.545455 -0.363636     48.000000
  0.000000  0.181818  0.545455     24.000000
 -0.090909  0.272727  0.636364     48.000000
  0.818182 -0.636364 -0.272727     48.000000
  0.727273 -0.545455 -0.181818     48.000000
  0.636364 -0.454545 -0.090909     48.000000
  0.545455 -0.363636  0.000000     24.000000
 -0.000000  0.181818  0.727273     24.000000
  0.909091 -0.727273 -0.181818     48.000000
  0.818182 -0.636364 -0.090909     48.000000
  0.727273 -0.545455  0.000000     24.000000
  1.000000 -0.818182 -0.090909     24.000000
  0.909091 -0.727273 -0.000000     24.000000
  1.000000 -0.636364 -0.272727     24.000000
  0.909091 -0.545455 -0.181818     48.000000
  1.000000 -0.636364 -0.090909     24.000000
  0.909091 -0.545455 -0.000000     24.000000
 
 TETIRR: Found    201 inequivalent tetrahedra from     7986


--------------------------------------------------------------------------------------------------------




 Dimension of arrays:
   k-points           NKPTS =     56   k-points in BZ     NKDIM =     56   number of bands    NBANDS=     12
   number of dos      NEDOS =    301   number of ions     NIONS =      2
   non local maximal  LDIM  =      4   non local SUM 2l+1 LMDIM =      8
   total plane-waves  NPLWV =   8000
   max r-space proj   IRMAX =      1   max aug-charges    IRDMAX=   6630
   dimension x,y,z NGX =    20 NGY =   20 NGZ =   20
   dimension x,y,z NGXF=    40 NGYF=   40 NGZF=   40
   support grid    NGXF=    40 NGYF=   40 NGZF=   40
   ions per type =               2
   NGX,Y,Z   is equivalent  to a cutoff of   8.55,  8.55,  8.55 a.u.
   NGXF,Y,Z  is equivalent  to a cutoff of  17.10, 17.10, 17.10 a.u.

 SYSTEM =  cd Si                                   
 POSCAR =  cd:                                     

 Startparameter for this run:
   NWRITE =      2    write-flag & timer
   PREC   = accura    normal or accurate (medium, high low for compatibility)
   ISTART =      0    job   : 0-new  1-cont  2-samecut
   ICHARG =      2    charge: 1-file 2-atom 10-const
   ISPIN  =      1    spin polarized calculation?
   LNONCOLLINEAR =      F non collinear calculations
   LSORBIT =      F    spin-orbit coupling
   INIWAV =      1    electr: 0-lowe 1-rand  2-diag
   LASPH  =      F    aspherical Exc in radial PAW
   METAGGA=      F    non-selfconsistent MetaGGA calc.

 Electronic Relaxation 1
   ENCUT  =  240.0 eV  17.64 Ry    4.20 a.u.   4.91  4.91  4.91*2*pi/ulx,y,z
   ENINI  =  240.0     initial cutoff
   ENAUG  =  322.1 eV  augmentation charge cutoff
   NELM   =     60;   NELMIN=  2; NELMDL= -5     # of ELM steps 
   EDIFF  = 0.1E-05   stopping-criterion for ELM
   LREAL  =      F    real-space projection
   NLSPLINE    = F    spline interpolate recip. space projectors
   LCOMPAT=      F    compatible to vasp.4.4
   GGA_COMPAT  = T    GGA compatible to vasp.4.4-vasp.4.6
   LMAXPAW     = -100 max onsite density
   LMAXMIX     =    2 max onsite mixed and CHGCAR
   VOSKOWN=      0    Vosko Wilk Nusair interpolation
   ROPT   =    0.00000
 Ionic relaxation
   EDIFFG = -.1E-05   stopping-criterion for IOM
   NSW    =     15    number of steps for IOM
   NBLOCK =      1;   KBLOCK =     15    inner block; outer block 
   IBRION =      2    ionic relax: 0-MD 1-quasi-New 2-CG
   NFREE  =      1    steps in history (QN), initial steepest desc. (CG)
   ISIF   =      3    stress and relaxation
   IWAVPR =     11    prediction:  0-non 1-charg 2-wave 3-comb
   ISYM   =      2    0-nonsym 1-usesym 2-fastsym
   LCORR  =      T    Harris-Foulkes like correction to forces

   POTIM  = 0.5000    time-step for ionic-motion
   TEIN   =    0.0    initial temperature
   TEBEG  =    0.0;   TEEND  =   0.0 temperature during run
   SMASS  =  -3.00    Nose mass-parameter (am)
   estimated Nose-frequenzy (Omega)   =  0.10E-29 period in steps =****** mass=  -0.346E-27a.u.
   SCALEE = 1.0000    scale energy and forces
   NPACO  =    256;   APACO  = 16.0  distance and # of slots for P.C.
   PSTRESS=    0.0 pullay stress

  Mass of Ions in am
   POMASS =  28.09
  Ionic Valenz
   ZVAL   =   4.00
  Atomic Wigner-Seitz radii
   RWIGS  =  -1.00
  virtual crystal weights 
   VCA    =   1.00
   NELECT =       8.0000    total number of electrons
   NUPDOWN=      -1.0000    fix difference up-down

 DOS related values:
   EMIN   =  10.00;   EMAX   =-10.00  energy-range for DOS
   EFERMI =   0.00
   ISMEAR =    -5;   SIGMA  =   0.20  broadening in eV -4-tet -1-fermi 0-gaus

 Electronic relaxation 2 (details)
   IALGO  =     38    algorithm
   LDIAG  =      T    sub-space diagonalisation (order eigenvalues)
   LSUBROT=      F    optimize rotation matrix (better conditioning)
   TURBO    =      0    0=normal 1=particle mesh
   IRESTART =      0    0=no restart 2=restart with 2 vectors
   NREBOOT  =      0    no. of reboots
   NMIN     =      0    reboot dimension
   EREF     =   0.00    reference energy to select bands
   IMIX   =      4    mixing-type and parameters
     AMIX     =   0.40;   BMIX     =  1.00
     AMIX_MAG =   1.60;   BMIX_MAG =  1.00
     AMIN     =   0.10
     WC   =   100.;   INIMIX=   1;  MIXPRE=   1;  MAXMIX= -45

 Intra band minimization:
   WEIMIN = 0.0010     energy-eigenvalue tresh-hold
   EBREAK =  0.21E-08  absolut break condition
   DEPER  =   0.30     relativ break condition  

   TIME   =   0.40     timestep for ELM

  volume/ion in A,a.u.               =      20.80       140.34
  Fermi-wavevector in a.u.,A,eV,Ry     =   0.944993  1.785779 12.150174  0.893013
  Thomas-Fermi vector in A             =   2.072852
 
 Write flags
   LWAVE        =      T    write WAVECAR
   LDOWNSAMPLE  =      F    k-point downsampling of WAVECAR
   LCHARG       =      T    write CHGCAR
   LVTOT        =      F    write LOCPOT, total local potential
   LVHAR        =      F    write LOCPOT, Hartree potential only
   LELF         =      F    write electronic localiz. function (ELF)
   LORBIT       =      0    0 simple, 1 ext, 2 COOP (PROOUT), +10 PAW based schemes


 Dipole corrections
   LMONO  =      F    monopole corrections only (constant potential shift)
   LDIPOL =      F    correct potential (dipole corrections)
   IDIPOL =      0    1-x, 2-y, 3-z, 4-all directions 
   EPSILON=  1.0000000 bulk dielectric constant

 Exchange correlation treatment:
   GGA     =    --    GGA type
   LEXCH   =     8    internal setting for exchange type
   VOSKOWN=      0    Vosko Wilk Nusair interpolation
   LHFCALC =     F    Hartree Fock is set to
   LHFONE  =     F    Hartree Fock one center treatment
   AEXX    =    0.0000 exact exchange contribution

 Linear response parameters
   LEPSILON=     F    determine dielectric tensor
   LRPA    =     F    only Hartree local field effects (RPA)
   LNABLA  =     F    use nabla operator in PAW spheres
   LVEL    =     F    velocity operator in full k-point grid
   LINTERFAST=   F  fast interpolation
   KINTER  =     0    interpolate to denser k-point grid
   CSHIFT  =0.1000    complex shift for real part using Kramers Kronig
   OMEGAMAX=  -1.0    maximum frequency
   DEG_THRESHOLD= 0.2000000E-02 threshold for treating states as degnerate
   RTIME   =   -0.100 relaxation time in fs
  (WPLASMAI=    0.000 imaginary part of plasma frequency in eV, 0.658/RTIME)
   DFIELD  = 0.0000000 0.0000000 0.0000000 field for delta impulse in time
 
 Orbital magnetization related:
   ORBITALMAG=     F  switch on orbital magnetization
   LCHIMAG   =     F  perturbation theory with respect to B field
   DQ        =  0.001000  dq finite difference perturbation B field
   LLRAUG    =     F  two centre corrections for induced B field



--------------------------------------------------------------------------------------------------------


 conjugate gradient relaxation of ions
 charge density and potential will be updated during run
 non-spin polarized calculation
 Variant of blocked Davidson
 Davidson routine will perform the subspace rotation
 perform sub-space diagonalisation
    after iterative eigenvector-optimisation
 modified Broyden-mixing scheme, WC =      100.0
 initial mixing is a Kerker type mixing with AMIX =  0.4000 and BMIX =      1.0000
 Hartree-type preconditioning will be used
 using additional bands            8
 reciprocal scheme for non local part
 use partial core corrections
 calculate Harris-corrections to forces 
   (improved forces if not selfconsistent)
 use gradient corrections 
 use of overlap-Matrix (Vanderbilt PP)
 Fermi weights with tetrahedron method with Bloechl corrections


--------------------------------------------------------------------------------------------------------


  energy-cutoff  :      240.00
  volume of cell :       41.59
      direct lattice vectors                 reciprocal lattice vectors
     0.000000000  2.750000000  2.750000000    -0.181818182  0.181818182  0.181818182
     2.750000000  0.000000000  2.750000000     0.181818182 -0.181818182  0.181818182
     2.750000000  2.750000000  0.000000000     0.181818182  0.181818182 -0.181818182

  length of vectors
     3.889087297  3.889087297  3.889087297     0.314918329  0.314918329  0.314918329


 
 k-points in units of 2pi/SCALE and weight: k-points                                
   0.00000000  0.00000000  0.00000000       0.001
  -0.09090909  0.09090909  0.09090909       0.006
  -0.18181818  0.18181818  0.18181818       0.006
  -0.27272727  0.27272727  0.27272727       0.006
  -0.36363636  0.36363636  0.36363636       0.006
  -0.45454545  0.45454545  0.45454545       0.006
   0.00000000  0.00000000  0.18181818       0.005
  -0.09090909  0.09090909  0.27272727       0.018
  -0.18181818  0.18181818  0.36363636       0.018
  -0.27272727  0.27272727  0.45454545       0.018
  -0.36363636  0.36363636  0.54545455       0.018
   0.54545455 -0.54545455 -0.36363636       0.018
   0.45454545 -0.45454545 -0.27272727       0.018
   0.36363636 -0.36363636 -0.18181818       0.018
   0.27272727 -0.27272727 -0.09090909       0.018
   0.18181818 -0.18181818  0.00000000       0.009
   0.00000000  0.00000000  0.36363636       0.005
  -0.09090909  0.09090909  0.45454545       0.018
  -0.18181818  0.18181818  0.54545455       0.018
  -0.27272727  0.27272727  0.63636364       0.018
   0.63636364 -0.63636364 -0.27272727       0.018
   0.54545455 -0.54545455 -0.18181818       0.018
   0.45454545 -0.45454545 -0.09090909       0.018
   0.36363636 -0.36363636  0.00000000       0.009
   0.00000000  0.00000000  0.54545455       0.005
  -0.09090909  0.09090909  0.63636364       0.018
  -0.18181818  0.18181818  0.72727273       0.018
   0.72727273 -0.72727273 -0.18181818       0.018
   0.63636364 -0.63636364 -0.09090909       0.018
   0.54545455 -0.54545455  0.00000000       0.009
   0.00000000  0.00000000  0.72727273       0.005
  -0.09090909  0.09090909  0.81818182       0.018
   0.81818182 -0.81818182 -0.09090909       0.018
   0.72727273 -0.72727273  0.00000000       0.009
   0.00000000  0.00000000  0.90909091       0.005
   0.90909091 -0.90909091 -0.00000000       0.009
  -0.00000000  0.18181818  0.36363636       0.018
  -0.09090909  0.27272727  0.45454545       0.036
  -0.18181818  0.36363636  0.54545455       0.036
   0.72727273 -0.54545455 -0.36363636       0.036
   0.00000000  0.18181818  0.54545455       0.018
  -0.09090909  0.27272727  0.63636364       0.036
   0.81818182 -0.63636364 -0.27272727       0.036
   0.72727273 -0.54545455 -0.18181818       0.036
   0.63636364 -0.45454545 -0.09090909       0.036
   0.54545455 -0.36363636  0.00000000       0.018
  -0.00000000  0.18181818  0.72727273       0.018
   0.90909091 -0.72727273 -0.18181818       0.036
   0.81818182 -0.63636364 -0.09090909       0.036
   0.72727273 -0.54545455  0.00000000       0.018
   1.00000000 -0.81818182 -0.09090909       0.018
   0.90909091 -0.72727273 -0.00000000       0.018
   1.00000000 -0.63636364 -0.27272727       0.018
   0.90909091 -0.54545455 -0.18181818       0.036
   1.00000000 -0.63636364 -0.09090909       0.018
   0.90909091 -0.54545455 -0.00000000       0.018
 
 k-points in reciprocal lattice and weights: k-points                                
   0.00000000  0.00000000  0.00000000       0.001
   0.09090909  0.00000000  0.00000000       0.006
   0.18181818  0.00000000  0.00000000       0.006
   0.27272727  0.00000000  0.00000000       0.006
   0.36363636  0.00000000  0.00000000       0.006
   0.45454545  0.00000000  0.00000000       0.006
   0.09090909  0.09090909  0.00000000       0.005
   0.18181818  0.09090909  0.00000000       0.018
   0.27272727  0.09090909  0.00000000       0.018
   0.36363636  0.09090909  0.00000000       0.018
   0.45454545  0.09090909  0.00000000       0.018
  -0.45454545  0.09090909  0.00000000       0.018
  -0.36363636  0.09090909  0.00000000       0.018
  -0.27272727  0.09090909  0.00000000       0.018
  -0.18181818  0.09090909  0.00000000       0.018
  -0.09090909  0.09090909  0.00000000       0.009
   0.18181818  0.18181818  0.00000000       0.005
   0.27272727  0.18181818  0.00000000       0.018
   0.36363636  0.18181818  0.00000000       0.018
   0.45454545  0.18181818  0.00000000       0.018
  -0.45454545  0.18181818  0.00000000       0.018
  -0.36363636  0.18181818  0.00000000       0.018
  -0.27272727  0.18181818  0.00000000       0.018
  -0.18181818  0.18181818  0.00000000       0.009
   0.27272727  0.27272727  0.00000000       0.005
   0.36363636  0.27272727  0.00000000       0.018
   0.45454545  0.27272727  0.00000000       0.018
  -0.45454545  0.27272727  0.00000000       0.018
  -0.36363636  0.27272727  0.00000000       0.018
  -0.27272727  0.27272727  0.00000000       0.009
   0.36363636  0.36363636  0.00000000       0.005
   0.45454545  0.36363636  0.00000000       0.018
  -0.45454545  0.36363636  0.00000000       0.018
  -0.36363636  0.36363636  0.00000000       0.009
   0.45454545  0.45454545  0.00000000       0.005
  -0.45454545  0.45454545  0.00000000       0.009
   0.27272727  0.18181818  0.09090909       0.018
   0.36363636  0.18181818  0.09090909       0.036
   0.45454545  0.18181818  0.09090909       0.036
  -0.45454545  0.18181818  0.09090909       0.036
   0.36363636  0.27272727  0.09090909       0.018
   0.45454545  0.27272727  0.09090909       0.036
  -0.45454545  0.27272727  0.09090909       0.036
  -0.36363636  0.27272727  0.09090909       0.036
  -0.27272727  0.27272727  0.09090909       0.036
  -0.18181818  0.27272727  0.09090909       0.018
   0.45454545  0.36363636  0.09090909       0.018
  -0.45454545  0.36363636  0.09090909       0.036
  -0.36363636  0.36363636  0.09090909       0.036
  -0.27272727  0.36363636  0.09090909       0.018
  -0.45454545  0.45454545  0.09090909       0.018
  -0.36363636  0.45454545  0.09090909       0.018
  -0.45454545  0.36363636  0.18181818       0.018
  -0.36363636  0.36363636  0.18181818       0.036
  -0.36363636  0.45454545  0.18181818       0.018
  -0.27272727  0.45454545  0.18181818       0.018
 
 position of ions in fractional coordinates (direct lattice) 
   0.87500000  0.87500000  0.87500000
   0.12500000  0.12500000  0.12500000
 
 position of ions in cartesian coordinates  (Angst):
   4.81250000  4.81250000  4.81250000
   0.68750000  0.68750000  0.68750000
 


--------------------------------------------------------------------------------------------------------


 k-point  1 :   0.0000 0.0000 0.0000  plane waves:     339
 k-point  2 :   0.0909 0.0000 0.0000  plane waves:     335
 k-point  3 :   0.1818 0.0000 0.0000  plane waves:     344
 k-point  4 :   0.2727 0.0000 0.0000  plane waves:     350
 k-point  5 :   0.3636 0.0000 0.0000  plane waves:     353
 k-point  6 :   0.4545 0.0000 0.0000  plane waves:     356
 k-point  7 :   0.0909 0.0909 0.0000  plane waves:     335
 k-point  8 :   0.1818 0.0909 0.0000  plane waves:     345
 k-point  9 :   0.2727 0.0909 0.0000  plane waves:     343
 k-point 10 :   0.3636 0.0909 0.0000  plane waves:     349
 k-point 11 :   0.4545 0.0909 0.0000  plane waves:     347
 k-point 12 :  -0.4545 0.0909 0.0000  plane waves:     353
 k-point 13 :  -0.3636 0.0909 0.0000  plane waves:     352
 k-point 14 :  -0.2727 0.0909 0.0000  plane waves:     348
 k-point 15 :  -0.1818 0.0909 0.0000  plane waves:     351
 k-point 16 :  -0.0909 0.0909 0.0000  plane waves:     343
 k-point 17 :   0.1818 0.1818 0.0000  plane waves:     347
 k-point 18 :   0.2727 0.1818 0.0000  plane waves:     348
 k-point 19 :   0.3636 0.1818 0.0000  plane waves:     349
 k-point 20 :   0.4545 0.1818 0.0000  plane waves:     348
 k-point 21 :  -0.4545 0.1818 0.0000  plane waves:     360
 k-point 22 :  -0.3636 0.1818 0.0000  plane waves:     354
 k-point 23 :  -0.2727 0.1818 0.0000  plane waves:     351
 k-point 24 :  -0.1818 0.1818 0.0000  plane waves:     349
 k-point 25 :   0.2727 0.2727 0.0000  plane waves:     347
 k-point 26 :   0.3636 0.2727 0.0000  plane waves:     341
 k-point 27 :   0.4545 0.2727 0.0000  plane waves:     346
 k-point 28 :  -0.4545 0.2727 0.0000  plane waves:     359
 k-point 29 :  -0.3636 0.2727 0.0000  plane waves:     358
 k-point 30 :  -0.2727 0.2727 0.0000  plane waves:     351
 k-point 31 :   0.3636 0.3636 0.0000  plane waves:     351
 k-point 32 :   0.4545 0.3636 0.0000  plane waves:     348
 k-point 33 :  -0.4545 0.3636 0.0000  plane waves:     358
 k-point 34 :  -0.3636 0.3636 0.0000  plane waves:     351
 k-point 35 :   0.4545 0.4545 0.0000  plane waves:     343
 k-point 36 :  -0.4545 0.4545 0.0000  plane waves:     347
 k-point 37 :   0.2727 0.1818 0.0909  plane waves:     349
 k-point 38 :   0.3636 0.1818 0.0909  plane waves:     343
 k-point 39 :   0.4545 0.1818 0.0909  plane waves:     348
 k-point 40 :  -0.4545 0.1818 0.0909  plane waves:     354
 k-point 41 :   0.3636 0.2727 0.0909  plane waves:     346
 k-point 42 :   0.4545 0.2727 0.0909  plane waves:     345
 k-point 43 :  -0.4545 0.2727 0.0909  plane waves:     355
 k-point 44 :  -0.3636 0.2727 0.0909  plane waves:     359
 k-point 45 :  -0.2727 0.2727 0.0909  plane waves:     355
 k-point 46 :  -0.1818 0.2727 0.0909  plane waves:     350
 k-point 47 :   0.4545 0.3636 0.0909  plane waves:     342
 k-point 48 :  -0.4545 0.3636 0.0909  plane waves:     349
 k-point 49 :  -0.3636 0.3636 0.0909  plane waves:     356
 k-point 50 :  -0.2727 0.3636 0.0909  plane waves:     355
 k-point 51 :  -0.4545 0.4545 0.0909  plane waves:     357
 k-point 52 :  -0.3636 0.4545 0.0909  plane waves:     357
 k-point 53 :  -0.4545 0.3636 0.1818  plane waves:     349
 k-point 54 :  -0.3636 0.3636 0.1818  plane waves:     359
 k-point 55 :  -0.3636 0.4545 0.1818  plane waves:     355
 k-point 56 :  -0.2727 0.4545 0.1818  plane waves:     355

 maximum and minimum number of plane-waves per node :       360      335

 maximum number of plane-waves:       360
 maximum index in each direction: 
   IXMAX=    5   IYMAX=    4   IZMAX=    4
   IXMIN=   -5   IYMIN=   -5   IZMIN=   -5


 serial   3D FFT for wavefunctions
 parallel 3D FFT for charge:
    minimum data exchange during FFTs selected (reduces bandwidth)


 total amount of memory used by VASP MPI-rank0    32544. kBytes
=======================================================================

   base      :      30000. kBytes
   nonl-proj :       1301. kBytes
   fftplans  :        250. kBytes
   grid      :        643. kBytes
   one-center:          6. kBytes
   wavefun   :        344. kBytes
 
     INWAV:  cpu time    0.0000: real time    0.0000
 Broyden mixing: mesh for mixing (old mesh)
   NGX =  9   NGY =  9   NGZ =  9
  (NGX  = 40   NGY  = 40   NGZ  = 40)
  gives a total of    729 points

 initial charge density was supplied:
 charge density of overlapping atoms calculated
 number of electron       8.0000000 magnetization 
 keeping initial charge density in first step


--------------------------------------------------------------------------------------------------------


 Maximum index for augmentation-charges          783 (set IRDMAX)


--------------------------------------------------------------------------------------------------------


 First call to EWALD:  gamma=   0.512
 Maximum number of real-space cells 3x 3x 3
 Maximum number of reciprocal cells 3x 3x 3

    FEWALD:  cpu time    0.0019: real time    0.0019


--------------------------------------- Iteration      1(   1)  ---------------------------------------


    POTLOK:  cpu time    0.0087: real time    0.0092
    SETDIJ:  cpu time    0.0019: real time    0.0019
     EDDAV:  cpu time    0.1771: real time    0.1772
 BZINTS: Fermi energy:  6.826703;  8.000000 electrons
         Band energy:   5.775224;  BLOECHL correction: -0.018472
       DOS:  cpu time    0.0049: real time    0.0049
    --------------------------------------------
      LOOP:  cpu time    0.1925: real time    0.1931

 eigenvalue-minimisations  :  1416
 total energy-change (2. order) :-0.5670438E+01  (-0.2097649E+03)
 number of electron       8.0000000 magnetization 
 augmentation part        8.0000000 magnetization 

 Free energy of the ion-electron system (eV)
  ---------------------------------------------------
  alpha Z        PSCENC =         3.23732588
  Ewald energy   TEWEN  =      -225.65453461
  -Hartree energ DENC   =       -11.58535014
  -exchange      EXHF   =         0.00000000
  -V(xc)+E(xc)   XCENC  =       -18.75122067
  PAW double counting   =       176.24759923     -141.06103558
  entropy T*S    EENTRO =         0.00000000
  eigenvalues    EBANDS =         5.77522438
  atomic energy  EATOM  =       206.12155316
  Solvation  Ediel_sol  =         0.00000000
  ---------------------------------------------------
  free energy    TOTEN  =        -5.67043835 eV

  energy without entropy =       -5.67043835  energy(sigma->0) =       -5.67043835


--------------------------------------------------------------------------------------------------------




--------------------------------------- Iteration      1(   2)  ---------------------------------------


     EDDAV:  cpu time    0.2660: real time    0.2670
 BZINTS: Fermi energy:  4.973587;  8.000000 electrons
         Band energy:   0.498831;  BLOECHL correction:  0.000000
       DOS:  cpu time    0.0015: real time    0.0015
    --------------------------------------------
      LOOP:  cpu time    0.2675: real time    0.2686

 eigenvalue-minimisations  :  1992
 total energy-change (2. order) :-0.5276393E+01  (-0.5257309E+01)
 number of electron       8.0000000 magnetization 
 augmentation part        8.0000000 magnetization 

 Free energy of the ion-electron system (eV)
  ---------------------------------------------------
  alpha Z        PSCENC =         3.23732588
  Ewald energy   TEWEN  =      -225.65453461
  -Hartree energ DENC   =       -11.58535014
  -exchange      EXHF   =         0.00000000
  -V(xc)+E(xc)   XCENC  =       -18.75122067
  PAW double counting   =       176.24759923     -141.06103558
  entropy T*S    EENTRO =         0.00000000
  eigenvalues    EBANDS =         0.49883093
  atomic energy  EATOM  =       206.12155316
  Solvation  Ediel_sol  =         0.00000000
  ---------------------------------------------------
  free energy    TOTEN  =       -10.94683180 eV

  energy without entropy =      -10.94683180  energy(sigma->0) =      -10.94683180


--------------------------------------------------------------------------------------------------------




--------------------------------------- Iteration      1(   3)  ---------------------------------------


     EDDAV:  cpu time    0.2190: real time    0.2193
 BZINTS: Fermi energy:  4.958043;  8.000000 electrons
         Band energy:   0.464989;  BLOECHL correction:  0.000000
       DOS:  cpu time    0.0015: real time    0.0015
    --------------------------------------------
      LOOP:  cpu time    0.2205: real time    0.2208

 eigenvalue-minimisations  :  1668
 total energy-change (2. order) :-0.3384171E-01  (-0.3384171E-01)
 number of electron       8.0000000 magnetization 
 augmentation part        8.0000000 magnetization 

 Free energy of the ion-electron system (eV)
  ---------------------------------------------------
  alpha Z        PSCENC =         3.23732588
  Ewald energy   TEWEN  =      -225.65453461
  -Hartree energ DENC   =       -11.58535014
  -exchange      EXHF   =         0.00000000
  -V(xc)+E(xc)   XCENC  =       -18.75122067
  PAW double counting   =       176.24759923     -141.06103558
  entropy T*S    EENTRO =         0.00000000
  eigenvalues    EBANDS =         0.46498923
  atomic energy  EATOM  =       206.12155316
  Solvation  Ediel_sol  =         0.00000000
  ---------------------------------------------------
  free energy    TOTEN  =       -10.98067351 eV

  energy without entropy =      -10.98067351  energy(sigma->0) =      -10.98067351


--------------------------------------------------------------------------------------------------------




--------------------------------------- Iteration      1(   4)  ---------------------------------------


     EDDAV:  cpu time    0.3163: real time    0.3166
 BZINTS: Fermi energy:  4.997942;  8.000000 electrons
         Band energy:   0.464914;  BLOECHL correction:  0.000000
       DOS:  cpu time    0.0014: real time    0.0014
    --------------------------------------------
      LOOP:  cpu time    0.3177: real time    0.3180

 eigenvalue-minimisations  :  2268
 total energy-change (2. order) :-0.7564462E-04  (-0.7564462E-04)
 number of electron       8.0000000 magnetization 
 augmentation part        8.0000000 magnetization 

 Free energy of the ion-electron system (eV)
  ---------------------------------------------------
  alpha Z        PSCENC =         3.23732588
  Ewald energy   TEWEN  =      -225.65453461
  -Hartree energ DENC   =       -11.58535014
  -exchange      EXHF   =         0.00000000
  -V(xc)+E(xc)   XCENC  =       -18.75122067
  PAW double counting   =       176.24759923     -141.06103558
  entropy T*S    EENTRO =         0.00000000
  eigenvalues    EBANDS =         0.46491358
  atomic energy  EATOM  =       206.12155316
  Solvation  Ediel_sol  =         0.00000000
  ---------------------------------------------------
  free energy    TOTEN  =       -10.98074915 eV

  energy without entropy =      -10.98074915  energy(sigma->0) =      -10.98074915


--------------------------------------------------------------------------------------------------------




--------------------------------------- Iteration      1(   5)  ---------------------------------------


     EDDAV:  cpu time    0.1894: real time    0.1898
 BZINTS: Fermi energy:  4.986558;  8.000000 electrons
         Band energy:   0.464914;  BLOECHL correction:  0.000000
       DOS:  cpu time    0.0014: real time    0.0014
    CHARGE:  cpu time    0.0126: real time    0.0126
    MIXING:  cpu time    0.0003: real time    0.0003
    --------------------------------------------
      LOOP:  cpu time    0.2037: real time    0.2041

 eigenvalue-minimisations  :  1584
 total energy-change (2. order) :-0.5069353E-08  (-0.5069391E-08)
 number of electron       7.9999997 magnetization 
 augmentation part       -0.4671958 magnetization 

 Broyden mixing:
  rms(total) = 0.51888E+00    rms(broyden)= 0.51885E+00
  rms(prec ) = 0.93798E+00
  weight for this iteration     100.00

 Free energy of the ion-electron system (eV)
  ---------------------------------------------------
  alpha Z        PSCENC =         3.23732588
  Ewald energy   TEWEN  =      -225.65453461
  -Hartree energ DENC   =       -11.58535014
  -exchange      EXHF   =         0.00000000
  -V(xc)+E(xc)   XCENC  =       -18.75122067
  PAW double counting   =       176.24759923     -141.06103558
  entropy T*S    EENTRO =         0.00000000
  eigenvalues    EBANDS =         0.46491358
  atomic energy  EATOM  =       206.12155316
  Solvation  Ediel_sol  =         0.00000000
  ---------------------------------------------------
  free energy    TOTEN  =       -10.98074916 eV

  energy without entropy =      -10.98074916  energy(sigma->0) =      -10.98074916


--------------------------------------------------------------------------------------------------------




--------------------------------------- Iteration      1(   6)  ---------------------------------------


    POTLOK:  cpu time    0.0053: real time    0.0053
    SETDIJ:  cpu time    0.0016: real time    0.0016
     EDDAV:  cpu time    0.1972: real time    0.1974
 BZINTS: Fermi energy:  5.150348;  8.000000 electrons
         Band energy:   1.872610;  BLOECHL correction:  0.000000
       DOS:  cpu time    0.0013: real time    0.0013
    CHARGE:  cpu time    0.0116: real time    0.0116
    MIXING:  cpu time    0.0003: real time    0.0003
    --------------------------------------------
      LOOP:  cpu time    0.2174: real time    0.2176

 eigenvalue-minimisations  :  1632
 total energy-change (2. order) : 0.1083934E+00  (-0.6927406E-02)
 number of electron       7.9999997 magnetization 
 augmentation part       -0.4620450 magnetization 

 Broyden mixing:
  rms(total) = 0.31539E+00    rms(broyden)= 0.31539E+00
  rms(prec ) = 0.55965E+00
  weight for this iteration     100.00

 eigenvalues of (default mixing * dielectric matrix)
  average eigenvalue GAMMA=   2.5440
  2.5440

 Free energy of the ion-electron system (eV)
  ---------------------------------------------------
  alpha Z        PSCENC =         3.23732588
  Ewald energy   TEWEN  =      -225.65453461
  -Hartree energ DENC   =       -13.01578802
  -exchange      EXHF   =         0.00000000
  -V(xc)+E(xc)   XCENC  =       -18.52139038
  PAW double counting   =       405.69213020     -370.60426159
  entropy T*S    EENTRO =         0.00000000
  eigenvalues    EBANDS =         1.87260959
  atomic energy  EATOM  =       206.12155316
  Solvation  Ediel_sol  =         0.00000000
  ---------------------------------------------------
  free energy    TOTEN  =       -10.87235578 eV

  energy without entropy =      -10.87235578  energy(sigma->0) =      -10.87235578


--------------------------------------------------------------------------------------------------------




--------------------------------------- Iteration      1(   7)  ---------------------------------------


    POTLOK:  cpu time    0.0052: real time    0.0052
    SETDIJ:  cpu time    0.0016: real time    0.0016
     EDDAV:  cpu time    0.2176: real time    0.2179
 BZINTS: Fermi energy:  5.492395;  8.000000 electrons
         Band energy:   4.028581;  BLOECHL correction:  0.000000
       DOS:  cpu time    0.0015: real time    0.0015
    CHARGE:  cpu time    0.0116: real time    0.0117
    MIXING:  cpu time    0.0003: real time    0.0003
    --------------------------------------------
      LOOP:  cpu time    0.2378: real time    0.2380

 eigenvalue-minimisations  :  1776
 total energy-change (2. order) : 0.5054897E-01  (-0.1344290E-01)
 number of electron       7.9999997 magnetization 
 augmentation part       -0.4558018 magnetization 

 Broyden mixing:
  rms(total) = 0.15597E-01    rms(broyden)= 0.15596E-01
  rms(prec ) = 0.37765E-01
  weight for this iteration     100.00

 eigenvalues of (default mixing * dielectric matrix)
  average eigenvalue GAMMA=   2.0306
  1.6607  2.4005

 Free energy of the ion-electron system (eV)
  ---------------------------------------------------
  alpha Z        PSCENC =         3.23732588
  Ewald energy   TEWEN  =      -225.65453461
  -Hartree energ DENC   =       -15.37745665
  -exchange      EXHF   =         0.00000000
  -V(xc)+E(xc)   XCENC  =       -18.13681421
  PAW double counting   =       966.92558200     -931.96604340
  entropy T*S    EENTRO =         0.00000000
  eigenvalues    EBANDS =         4.02858102
  atomic energy  EATOM  =       206.12155316
  Solvation  Ediel_sol  =         0.00000000
  ---------------------------------------------------
  free energy    TOTEN  =       -10.82180681 eV

  energy without entropy =      -10.82180681  energy(sigma->0) =      -10.82180681


--------------------------------------------------------------------------------------------------------




--------------------------------------- Iteration      1(   8)  ---------------------------------------


    POTLOK:  cpu time    0.0052: real time    0.0053
    SETDIJ:  cpu time    0.0016: real time    0.0016
     EDDAV:  cpu time    0.1867: real time    0.1868
 BZINTS: Fermi energy:  5.483114;  8.000000 electrons
         Band energy:   3.941620;  BLOECHL correction:  0.000000
       DOS:  cpu time    0.0014: real time    0.0014
    CHARGE:  cpu time    0.0117: real time    0.0117
    MIXING:  cpu time    0.0003: real time    0.0003
    --------------------------------------------
      LOOP:  cpu time    0.2068: real time    0.2071

 eigenvalue-minimisations  :  1572
 total energy-change (2. order) :-0.1043168E-02  (-0.2795521E-03)
 number of electron       7.9999997 magnetization 
 augmentation part       -0.4564217 magnetization 

 Broyden mixing:
  rms(total) = 0.77045E-02    rms(broyden)= 0.77042E-02
  rms(prec ) = 0.13685E-01
  weight for this iteration     100.00

 eigenvalues of (default mixing * dielectric matrix)
  average eigenvalue GAMMA=   2.2935
  3.1900  1.7364  1.9541

 Free energy of the ion-electron system (eV)
  ---------------------------------------------------
  alpha Z        PSCENC =         3.23732588
  Ewald energy   TEWEN  =      -225.65453461
  -Hartree energ DENC   =       -15.31573990
  -exchange      EXHF   =         0.00000000
  -V(xc)+E(xc)   XCENC  =       -18.13723291
  PAW double counting   =       967.50342474     -932.51926638
  entropy T*S    EENTRO =         0.00000000
  eigenvalues    EBANDS =         3.94162005
  atomic energy  EATOM  =       206.12155316
  Solvation  Ediel_sol  =         0.00000000
  ---------------------------------------------------
  free energy    TOTEN  =       -10.82284998 eV

  energy without entropy =      -10.82284998  energy(sigma->0) =      -10.82284998


--------------------------------------------------------------------------------------------------------




--------------------------------------- Iteration      1(   9)  ---------------------------------------


    POTLOK:  cpu time    0.0051: real time    0.0052
    SETDIJ:  cpu time    0.0016: real time    0.0016
     EDDAV:  cpu time    0.2521: real time    0.2523
 BZINTS: Fermi energy:  5.486854;  8.000000 electrons
         Band energy:   3.972963;  BLOECHL correction:  0.000000
       DOS:  cpu time    0.0014: real time    0.0014
    CHARGE:  cpu time    0.0116: real time    0.0117
    MIXING:  cpu time    0.0003: real time    0.0003
    --------------------------------------------
      LOOP:  cpu time    0.2721: real time    0.2724

 eigenvalue-minimisations  :  2004
 total energy-change (2. order) :-0.2157572E-03  (-0.2387003E-04)
 number of electron       7.9999997 magnetization 
 augmentation part       -0.4565763 magnetization 

 Broyden mixing:
  rms(total) = 0.57685E-02    rms(broyden)= 0.57684E-02
  rms(prec ) = 0.65071E-02
  weight for this iteration     100.00

 eigenvalues of (default mixing * dielectric matrix)
  average eigenvalue GAMMA=   2.0382
  2.9030  2.2092  2.2092  0.8316

 Free energy of the ion-electron system (eV)
  ---------------------------------------------------
  alpha Z        PSCENC =         3.23732588
  Ewald energy   TEWEN  =      -225.65453461
  -Hartree energ DENC   =       -15.36134595
  -exchange      EXHF   =         0.00000000
  -V(xc)+E(xc)   XCENC  =       -18.12757149
  PAW double counting   =       976.51227526     -941.52373060
  entropy T*S    EENTRO =         0.00000000
  eigenvalues    EBANDS =         3.97296263
  atomic energy  EATOM  =       206.12155316
  Solvation  Ediel_sol  =         0.00000000
  ---------------------------------------------------
  free energy    TOTEN  =       -10.82306574 eV

  energy without entropy =      -10.82306574  energy(sigma->0) =      -10.82306574


--------------------------------------------------------------------------------------------------------




--------------------------------------- Iteration      1(  10)  ---------------------------------------


    POTLOK:  cpu time    0.0052: real time    0.0052
    SETDIJ:  cpu time    0.0016: real time    0.0016
     EDDAV:  cpu time    0.2542: real time    0.2544
 BZINTS: Fermi energy:  5.487424;  8.000000 electrons
         Band energy:   3.978965;  BLOECHL correction:  0.000000
       DOS:  cpu time    0.0015: real time    0.0015
    CHARGE:  cpu time    0.0116: real time    0.0116
    MIXING:  cpu time    0.0003: real time    0.0003
    --------------------------------------------
      LOOP:  cpu time    0.2743: real time    0.2746

 eigenvalue-minimisations  :  2004
 total energy-change (2. order) :-0.1205185E-04  (-0.8876980E-06)
 number of electron       7.9999997 magnetization 
 augmentation part       -0.4565280 magnetization 

 Broyden mixing:
  rms(total) = 0.55800E-03    rms(broyden)= 0.55798E-03
  rms(prec ) = 0.10401E-02
  weight for this iteration     100.00

 eigenvalues of (default mixing * dielectric matrix)
  average eigenvalue GAMMA=   1.9176
  2.9568  2.4873  2.1054  1.0193  1.0193

 Free energy of the ion-electron system (eV)
  ---------------------------------------------------
  alpha Z        PSCENC =         3.23732588
  Ewald energy   TEWEN  =      -225.65453461
  -Hartree energ DENC   =       -15.36598364
  -exchange      EXHF   =         0.00000000
  -V(xc)+E(xc)   XCENC  =       -18.12808363
  PAW double counting   =       967.10013481     -932.11245520
  entropy T*S    EENTRO =         0.00000000
  eigenvalues    EBANDS =         3.97896545
  atomic energy  EATOM  =       206.12155316
  Solvation  Ediel_sol  =         0.00000000
  ---------------------------------------------------
  free energy    TOTEN  =       -10.82307779 eV

  energy without entropy =      -10.82307779  energy(sigma->0) =      -10.82307779


--------------------------------------------------------------------------------------------------------




--------------------------------------- Iteration      1(  11)  ---------------------------------------


    POTLOK:  cpu time    0.0052: real time    0.0053
    SETDIJ:  cpu time    0.0016: real time    0.0016
     EDDAV:  cpu time    0.2490: real time    0.2493
 BZINTS: Fermi energy:  5.487412;  8.000000 electrons
         Band energy:   3.978864;  BLOECHL correction:  0.000000
       DOS:  cpu time    0.0014: real time    0.0014
    CHARGE:  cpu time    0.0117: real time    0.0117
    MIXING:  cpu time    0.0003: real time    0.0003
    --------------------------------------------
      LOOP:  cpu time    0.2691: real time    0.2695

 eigenvalue-minimisations  :  1968
 total energy-change (2. order) :-0.1588410E-05  (-0.2394857E-06)
 number of electron       7.9999997 magnetization 
 augmentation part       -0.4565359 magnetization 

 Broyden mixing:
  rms(total) = 0.32872E-03    rms(broyden)= 0.32872E-03
  rms(prec ) = 0.48760E-03
  weight for this iteration     100.00

 eigenvalues of (default mixing * dielectric matrix)
  average eigenvalue GAMMA=   2.1894
  3.2327  2.9965  2.7170  2.2556  1.0023  0.9322

 Free energy of the ion-electron system (eV)
  ---------------------------------------------------
  alpha Z        PSCENC =         3.23732588
  Ewald energy   TEWEN  =      -225.65453461
  -Hartree energ DENC   =       -15.36643221
  -exchange      EXHF   =         0.00000000
  -V(xc)+E(xc)   XCENC  =       -18.12801680
  PAW double counting   =       966.26662976     -931.27846862
  entropy T*S    EENTRO =         0.00000000
  eigenvalues    EBANDS =         3.97886407
  atomic energy  EATOM  =       206.12155316
  Solvation  Ediel_sol  =         0.00000000
  ---------------------------------------------------
  free energy    TOTEN  =       -10.82307938 eV

  energy without entropy =      -10.82307938  energy(sigma->0) =      -10.82307938


--------------------------------------------------------------------------------------------------------




--------------------------------------- Iteration      1(  12)  ---------------------------------------


    POTLOK:  cpu time    0.0052: real time    0.0052
    SETDIJ:  cpu time    0.0016: real time    0.0016
     EDDAV:  cpu time    0.2375: real time    0.2378
 BZINTS: Fermi energy:  5.487565;  8.000000 electrons
         Band energy:   3.980316;  BLOECHL correction:  0.000000
       DOS:  cpu time    0.0014: real time    0.0014
    --------------------------------------------
      LOOP:  cpu time    0.2457: real time    0.2459

 eigenvalue-minimisations  :  1908
 total energy-change (2. order) :-0.3135384E-06  (-0.4845639E-07)
 number of electron       7.9999997 magnetization 
 augmentation part       -0.4565359 magnetization 

 Free energy of the ion-electron system (eV)
  ---------------------------------------------------
  alpha Z        PSCENC =         3.23732588
  Ewald energy   TEWEN  =      -225.65453461
  -Hartree energ DENC   =       -15.36779074
  -exchange      EXHF   =         0.00000000
  -V(xc)+E(xc)   XCENC  =       -18.12805100
  PAW double counting   =       966.06509749     -931.07699587
  entropy T*S    EENTRO =         0.00000000
  eigenvalues    EBANDS =         3.98031600
  atomic energy  EATOM  =       206.12155316
  Solvation  Ediel_sol  =         0.00000000
  ---------------------------------------------------
  free energy    TOTEN  =       -10.82307969 eV

  energy without entropy =      -10.82307969  energy(sigma->0) =      -10.82307969


--------------------------------------------------------------------------------------------------------




 average (electrostatic) potential at core
  the test charge radii are     0.9892
  (the norm of the test charge is              1.0000)
       1 -83.6743       2 -83.6743
 
 
 
 E-fermi :   5.4876     XC(G=0):  -9.2617     alpha+bet :-11.5327


 k-point     1 :       0.0000    0.0000    0.0000
  band No.  band energies     occupation 
      1      -6.2526      2.00000
      2       5.4595      2.00000
      3       5.4595      2.00000
      4       5.4595      2.00000
      5       8.0112      0.00000
      6       8.0112      0.00000
      7       8.0112      0.00000
      8       8.3879      0.00000
      9      13.2309      0.00000
     10      13.2309      0.00000
     11      13.2604      0.00000
     12      16.6043      0.00000

 k-point     2 :       0.0909    0.0000    0.0000
  band No.  band energies     occupation 
      1      -6.1478      2.00000
      2       4.4714      2.00000
      3       5.2986      2.00000
      4       5.2986      2.00000
      5       7.9593      0.00000
      6       8.2499      0.00000
      7       8.2499      0.00000
      8       9.2592      0.00000
      9      12.9256      0.00000
     10      12.9256      0.00000
     11      13.7009      0.00000
     12      16.2436      0.00000

 k-point     3 :       0.1818    0.0000    0.0000
  band No.  band energies     occupation 
      1      -5.8378      2.00000
      2       2.8220      2.00000
      3       4.9659      2.00000
      4       4.9659      2.00000
      5       7.6249      0.00000
      6       8.7135      0.00000
      7       8.7135      0.00000
      8      10.8655      0.00000
      9      12.5696      0.00000
     10      12.5696      0.00000
     11      14.4477      0.00000
     12      16.0712      0.00000

 k-point     4 :       0.2727    0.0000    0.0000
  band No.  band energies     occupation 
      1      -5.3391      2.00000
      2       1.2036      2.00000
      3       4.6484      2.00000
      4       4.6484      2.00000
      5       7.2793      0.00000
      6       8.9743      0.00000
      7       8.9743      0.00000
      8      12.4442      0.00000
      9      12.8247      0.00000
     10      12.8247      0.00000
     11      14.2605      0.00000
     12      17.5379      0.00000

 k-point     5 :       0.3636    0.0000    0.0000
  band No.  band energies     occupation 
      1      -4.7036      2.00000
      2      -0.2105      2.00000
      3       4.4206      2.00000
      4       4.4206      2.00000
      5       7.0197      0.00000
      6       8.9381      0.00000
      7       8.9381      0.00000
      8      13.2515      0.00000
      9      13.8453      0.00000
     10      13.8453      0.00000
     11      14.6712      0.00000
     12      19.0839      0.00000

 k-point     6 :       0.4545    0.0000    0.0000
  band No.  band energies     occupation 
      1      -4.1215      2.00000
      2      -1.1882      2.00000
      3       4.3041      2.00000
      4       4.3041      2.00000
      5       6.8836      0.00000
      6       8.8435      0.00000
      7       8.8435      0.00000
      8      13.1587      0.00000
      9      15.3527      0.00000
     10      15.3527      0.00000
     11      16.1031      0.00000
     12      17.3175      0.00000

 k-point     7 :       0.0909    0.0909    0.0000
  band No.  band energies     occupation 
      1      -6.1127      2.00000
      2       4.6228      2.00000
      3       4.9859      2.00000
      4       4.9859      2.00000
      5       7.7015      0.00000
      6       8.6589      0.00000
      7       8.6589      0.00000
      8       9.1604      0.00000
      9      12.3668      0.00000
     10      13.3875      0.00000
     11      13.8491      0.00000
     12      16.8553      0.00000

 k-point     8 :       0.1818    0.0909    0.0000
  band No.  band energies     occupation 
      1      -5.8703      2.00000
      2       3.2969      2.00000
      3       4.5997      2.00000
      4       4.7633      2.00000
      5       7.7312      0.00000
      6       8.6380      0.00000
      7       9.2362      0.00000
      8      10.2334      0.00000
      9      12.0541      0.00000
     10      13.3395      0.00000
     11      14.6487      0.00000
     12      16.4523      0.00000

 k-point     9 :       0.2727    0.0909    0.0000
  band No.  band energies     occupation 
      1      -5.4319      2.00000
      2       1.7182      2.00000
      3       4.2875      2.00000
      4       4.3968      2.00000
      5       7.8136      0.00000
      6       8.6681      0.00000
      7       9.5948      0.00000
      8      10.7809      0.00000
      9      13.0124      0.00000
     10      13.5073      0.00000
     11      14.8899      0.00000
     12      17.1237      0.00000

 k-point    10 :       0.3636    0.0909    0.0000
  band No.  band energies     occupation 
      1      -4.8321      2.00000
      2       0.2534      2.00000
      3       4.0231      2.00000
      4       4.1029      2.00000
      5       7.6345      0.00000
      6       8.7551      0.00000
      7       9.5496      0.00000
      8      11.5408      0.00000
      9      14.2493      0.00000
     10      14.3802      0.00000
     11      14.8159      0.00000
     12      18.6288      0.00000

 k-point    11 :       0.4545    0.0909    0.0000
  band No.  band energies     occupation 
      1      -4.1905      2.00000
      2      -0.8989      2.00000
      3       3.7332      2.00000
      4       4.0611      2.00000
      5       7.4863      0.00000
      6       8.7394      0.00000
      7       9.3331      0.00000
      8      12.7477      0.00000
      9      14.1875      0.00000
     10      15.7941      0.00000
     11      16.3189      0.00000
     12      17.0894      0.00000

 k-point    12 :      -0.4545    0.0909    0.0000
  band No.  band energies     occupation 
      1      -3.9350      2.00000
      2      -1.2828      2.00000
      3       3.5621      2.00000
      4       4.1569      2.00000
      5       7.4511      0.00000
      6       8.8033      0.00000
      7       9.1542      0.00000
      8      13.4432      0.00000
      9      14.7130      0.00000
     10      15.0621      0.00000
     11      16.2379      0.00000
     12      17.6825      0.00000

 k-point    13 :      -0.3636    0.0909    0.0000
  band No.  band energies     occupation 
      1      -4.3945      2.00000
      2      -0.5645      2.00000
      3       3.5310      2.00000
      4       4.3767      2.00000
      5       7.5471      0.00000
      6       8.9886      0.00000
      7       9.0708      0.00000
      8      13.1038      0.00000
      9      13.4486      0.00000
     10      14.5546      0.00000
     11      16.4935      0.00000
     12      17.1906      0.00000

 k-point    14 :      -0.2727    0.0909    0.0000
  band No.  band energies     occupation 
      1      -5.0474      2.00000
      2       0.7218      2.00000
      3       3.6542      2.00000
      4       4.6918      2.00000
      5       7.7591      0.00000
      6       8.9873      0.00000
      7       9.1822      0.00000
      8      12.0356      0.00000
      9      12.3008      0.00000
     10      14.7143      0.00000
     11      14.8787      0.00000
     12      18.0040      0.00000

 k-point    15 :      -0.1818    0.0909    0.0000
  band No.  band energies     occupation 
      1      -5.5996      2.00000
      2       2.2280      2.00000
      3       3.9499      2.00000
      4       5.0470      2.00000
      5       8.0525      0.00000
      6       8.6948      0.00000
      7       9.0339      0.00000
      8      11.1181      0.00000
      9      11.9030      0.00000
     10      13.5689      0.00000
     11      15.0023      0.00000
     12      16.6273      0.00000

 k-point    16 :      -0.0909    0.0909    0.0000
  band No.  band energies     occupation 
      1      -5.9744      2.00000
      2       3.6654      2.00000
      3       4.5048      2.00000
      4       5.3165      2.00000
      5       8.2802      0.00000
      6       8.3009      0.00000
      7       8.4569      0.00000
      8      10.1750      0.00000
      9      12.2444      0.00000
     10      13.0693      0.00000
     11      14.3315      0.00000
     12      16.4475      0.00000

 k-point    17 :       0.1818    0.1818    0.0000
  band No.  band energies     occupation 
      1      -5.6957      2.00000
      2       3.1221      2.00000
      3       4.1788      2.00000
      4       4.1788      2.00000
      5       7.0735      0.00000
      6       9.4775      0.00000
      7       9.9718      0.00000
      8       9.9718      0.00000
      9      12.0587      0.00000
     10      13.8521      0.00000
     11      15.2912      0.00000
     12      17.5779      0.00000

 k-point    18 :       0.2727    0.1818    0.0000
  band No.  band energies     occupation 
      1      -5.3211      2.00000
      2       1.9984      2.00000
      3       3.7644      2.00000
      4       3.8444      2.00000
      5       7.1249      0.00000
      6       9.1176      0.00000
      7      10.2592      0.00000
      8      10.5489      0.00000
      9      13.2016      0.00000
     10      14.1559      0.00000
     11      16.0551      0.00000
     12      17.5167      0.00000

 k-point    19 :       0.3636    0.1818    0.0000
  band No.  band energies     occupation 
      1      -4.7694      2.00000
      2       0.6713      2.00000
      3       3.2418      2.00000
      4       3.6515      2.00000
      5       7.3581      0.00000
      6       9.4681      0.00000
      7      10.0640      0.00000
      8      10.6491      0.00000
      9      14.9113      0.00000
     10      14.9403      0.00000
     11      15.8568      0.00000
     12      18.5214      0.00000

 k-point    20 :       0.4545    0.1818    0.0000
  band No.  band energies     occupation 
      1      -4.1152      2.00000
      2      -0.5230      2.00000
      3       2.7768      2.00000
      4       3.6180      2.00000
      5       7.3974      0.00000
      6       9.8078      0.00000
      7      10.4166      0.00000
      8      10.6864      0.00000
      9      15.2711      0.00000
     10      16.2755      0.00000
     11      16.7297      0.00000
     12      16.9885      0.00000

 k-point    21 :      -0.4545    0.1818    0.0000
  band No.  band energies     occupation 
      1      -3.6564      2.00000
      2      -1.2025      2.00000
      3       2.4517      2.00000
      4       3.7429      2.00000
      5       7.4862      0.00000
      6       9.6915      0.00000
      7      10.1346      0.00000
      8      12.2709      0.00000
      9      14.4133      0.00000
     10      14.9293      0.00000
     11      16.8043      0.00000
     12      18.1110      0.00000

 k-point    22 :      -0.3636    0.1818    0.0000
  band No.  band energies     occupation 
      1      -3.9275      2.00000
      2      -0.8090      2.00000
      3       2.3076      2.00000
      4       4.0115      2.00000
      5       7.7189      0.00000
      6       9.6944      0.00000
      7       9.9082      0.00000
      8      13.0436      0.00000
      9      13.2417      0.00000
     10      13.9975      0.00000
     11      16.7056      0.00000
     12      19.0295      0.00000

 k-point    23 :      -0.2727    0.1818    0.0000
  band No.  band energies     occupation 
      1      -4.5719      2.00000
      2       0.2661      2.00000
      3       2.3956      2.00000
      4       4.3862      2.00000
      5       8.0587      0.00000
      6       9.6515      0.00000
      7       9.7577      0.00000
      8      11.6625      0.00000
      9      12.0338      0.00000
     10      15.4126      0.00000
     11      17.0714      0.00000
     12      17.4240      0.00000

 k-point    24 :      -0.1818    0.1818    0.0000
  band No.  band energies     occupation 
      1      -5.1667      2.00000
      2       1.4212      2.00000
      3       2.8735      2.00000
      4       4.7870      2.00000
      5       8.3510      0.00000
      6       9.1633      0.00000
      7       9.4519      0.00000
      8      11.0003      0.00000
      9      11.6150      0.00000
     10      15.2429      0.00000
     11      15.9032      0.00000
     12      17.0374      0.00000

 k-point    25 :       0.2727    0.2727    0.0000
  band No.  band energies     occupation 
      1      -5.0098      2.00000
      2       1.5300      2.00000
      3       3.4774      2.00000
      4       3.4774      2.00000
      5       6.5035      0.00000
      6       8.2871      0.00000
      7      11.5013      0.00000
      8      11.5013      0.00000
      9      13.6392      0.00000
     10      14.6238      0.00000
     11      17.1045      0.00000
     12      18.6061      0.00000

 k-point    26 :       0.3636    0.2727    0.0000
  band No.  band energies     occupation 
      1      -4.5128      2.00000
      2       0.6017      2.00000
      3       2.9585      2.00000
      4       3.2516      2.00000
      5       6.6362      0.00000
      6       8.0070      0.00000
      7      11.7675      0.00000
      8      11.9713      0.00000
      9      15.0811      0.00000
     10      15.3512      0.00000
     11      17.3586      0.00000
     12      18.6857      0.00000

 k-point    27 :       0.4545    0.2727    0.0000
  band No.  band energies     occupation 
      1      -3.8766      2.00000
      2      -0.3940      2.00000
      3       2.2561      2.00000
      4       3.1906      2.00000
      5       6.8405      0.00000
      6       8.7310      0.00000
      7      11.5944      0.00000
      8      11.8576      0.00000
      9      16.3045      0.00000
     10      16.6908      0.00000
     11      16.9933      0.00000
     12      16.9987      0.00000

 k-point    28 :      -0.4545    0.2727    0.0000
  band No.  band energies     occupation 
      1      -3.2895      2.00000
      2      -1.1634      2.00000
      3       1.7016      2.00000
      4       3.2981      2.00000
      5       6.9705      0.00000
      6      10.1817      0.00000
      7      11.4157      0.00000
      8      11.5413      0.00000
      9      14.7666      0.00000
     10      14.9740      0.00000
     11      18.4329      0.00000
     12      18.4867      0.00000

 k-point    29 :      -0.3636    0.2727    0.0000
  band No.  band energies     occupation 
      1      -3.3450      2.00000
      2      -1.0857      2.00000
      3       1.4290      2.00000
      4       3.5633      2.00000
      5       7.2470      0.00000
      6      11.1848      0.00000
      7      11.2079      0.00000
      8      12.0530      0.00000
      9      13.0624      0.00000
     10      13.2679      0.00000
     11      18.3879      0.00000
     12      20.2712      0.00000

 k-point    30 :      -0.2727    0.2727    0.0000
  band No.  band energies     occupation 
      1      -3.9540      2.00000
      2      -0.3524      2.00000
      3       1.5877      2.00000
      4       3.9526      2.00000
      5       7.6678      0.00000
      6      10.5831      0.00000
      7      10.9447      0.00000
      8      11.6865      0.00000
      9      12.2202      0.00000
     10      14.0042      0.00000
     11      18.3604      0.00000
     12      18.9965      0.00000

 k-point    31 :       0.3636    0.3636    0.0000
  band No.  band energies     occupation 
      1      -4.0703      2.00000
      2      -0.0461      2.00000
      3       2.9837      2.00000
      4       2.9837      2.00000
      5       6.1638      0.00000
      6       7.1850      0.00000
      7      13.1235      0.00000
      8      13.1235      0.00000
      9      15.5183      0.00000
     10      15.7113      0.00000
     11      18.4988      0.00000
     12      18.4988      0.00000

 k-point    32 :       0.4545    0.3636    0.0000
  band No.  band energies     occupation 
      1      -3.4689      2.00000
      2      -0.8383      2.00000
      3       2.4729      2.00000
      4       2.8811      2.00000
      5       6.3730      0.00000
      6       7.1883      0.00000
      7      13.4295      0.00000
      8      13.4626      0.00000
      9      16.7029      0.00000
     10      16.8345      0.00000
     11      17.1242      0.00000
     12      17.2086      0.00000

 k-point    33 :      -0.4545    0.3636    0.0000
  band No.  band energies     occupation 
      1      -2.8208      2.00000
      2      -1.5334      2.00000
      3       1.7287      2.00000
      4       2.9513      2.00000
      5       6.5427      0.00000
      6       8.3348      0.00000
      7      13.1878      0.00000
      8      13.2860      0.00000
      9      15.0103      0.00000
     10      15.1985      0.00000
     11      18.6383      0.00000
     12      18.7727      0.00000

 k-point    34 :      -0.3636    0.3636    0.0000
  band No.  band energies     occupation 
      1      -2.7659      2.00000
      2      -1.5588      2.00000
      3       1.2640      2.00000
      4       3.1879      2.00000
      5       6.8105      0.00000
      6      10.0236      0.00000
      7      12.5080      0.00000
      8      13.0463      0.00000
      9      13.1978      0.00000
     10      13.7451      0.00000
     11      19.8869      0.00000
     12      20.4947      0.00000

 k-point    35 :       0.4545    0.4545    0.0000
  band No.  band energies     occupation 
      1      -2.9027      2.00000
      2      -1.5444      2.00000
      3       2.7319      2.00000
      4       2.7319      2.00000
      5       6.1348      0.00000
      6       6.4632      0.00000
      7      14.7663      0.00000
      8      14.7663      0.00000
      9      16.9299      0.00000
     10      16.9299      0.00000
     11      17.1295      0.00000
     12      17.2928      0.00000

 k-point    36 :      -0.4545    0.4545    0.0000
  band No.  band energies     occupation 
      1      -2.2804      2.00000
      2      -2.1681      2.00000
      3       2.3124      2.00000
      4       2.7561      2.00000
      5       6.3160      0.00000
      6       6.8784      0.00000
      7      14.6770      0.00000
      8      14.8726      0.00000
      9      15.5307      0.00000
     10      15.7709      0.00000
     11      18.4258      0.00000
     12      18.5698      0.00000

 k-point    37 :       0.2727    0.1818    0.0909
  band No.  band energies     occupation 
      1      -5.5623      2.00000
      2       2.4410      2.00000
      3       3.6913      2.00000
      4       4.6541      2.00000
      5       7.7924      0.00000
      6       8.9419      0.00000
      7       9.7712      0.00000
      8      10.2151      0.00000
      9      12.3674      0.00000
     10      13.8220      0.00000
     11      15.4820      0.00000
     12      16.8689      0.00000

 k-point    38 :       0.3636    0.1818    0.0909
  band No.  band energies     occupation 
      1      -5.0664      2.00000
      2       1.1592      2.00000
      3       3.1375      2.00000
      4       4.3461      2.00000
      5       8.0876      0.00000
      6       8.9299      0.00000
      7      10.1122      0.00000
      8      10.3377      0.00000
      9      12.9321      0.00000
     10      15.1555      0.00000
     11      15.6942      0.00000
     12      17.5830      0.00000

 k-point    39 :       0.4545    0.1818    0.0909
  band No.  band energies     occupation 
      1      -4.4319      2.00000
      2      -0.1395      2.00000
      3       2.8779      2.00000
      4       4.0155      2.00000
      5       8.0942      0.00000
      6       8.7959      0.00000
      7      10.1998      0.00000
      8      11.1576      0.00000
      9      14.0014      0.00000
     10      15.1619      0.00000
     11      16.8758      0.00000
     12      17.2343      0.00000

 k-point    40 :      -0.4545    0.1818    0.0909
  band No.  band energies     occupation 
      1      -3.8449      2.00000
      2      -1.0831      2.00000
      3       2.7754      2.00000
      4       3.8137      2.00000
[...]
     11      18.4312      0.00000
     12      18.4866      0.00000

 k-point    29 :      -0.3636    0.2727    0.0000
  band No.  band energies     occupation 
      1      -3.3450      2.00000
      2      -1.0857      2.00000
      3       1.4289      2.00000
      4       3.5635      2.00000
      5       7.2465      0.00000
      6      11.1850      0.00000
      7      11.2071      0.00000
      8      12.0528      0.00000
      9      13.0621      0.00000
     10      13.2676      0.00000
     11      18.3861      0.00000
     12      20.2701      0.00000

 k-point    30 :      -0.2727    0.2727    0.0000
  band No.  band energies     occupation 
      1      -3.9540      2.00000
      2      -0.3524      2.00000
      3       1.5876      2.00000
      4       3.9528      2.00000
      5       7.6674      0.00000
      6      10.5834      0.00000
      7      10.9439      0.00000
      8      11.6862      0.00000
      9      12.2198      0.00000
     10      14.0039      0.00000
     11      18.3586      0.00000
     12      18.9949      0.00000

 k-point    31 :       0.3636    0.3636    0.0000
  band No.  band energies     occupation 
      1      -4.0703      2.00000
      2      -0.0460      2.00000
      3       2.9839      2.00000
      4       2.9839      2.00000
      5       6.1631      0.00000
      6       7.1842      0.00000
      7      13.1237      0.00000
      8      13.1237      0.00000
      9      15.5179      0.00000
     10      15.7113      0.00000
     11      18.4987      0.00000
     12      18.4987      0.00000

 k-point    32 :       0.4545    0.3636    0.0000
  band No.  band energies     occupation 
      1      -3.4689      2.00000
      2      -0.8383      2.00000
      3       2.4730      2.00000
      4       2.8813      2.00000
      5       6.3723      0.00000
      6       7.1876      0.00000
      7      13.4295      0.00000
      8      13.4627      0.00000
      9      16.7027      0.00000
     10      16.8345      0.00000
     11      17.1240      0.00000
     12      17.2079      0.00000

 k-point    33 :      -0.4545    0.3636    0.0000
  band No.  band energies     occupation 
      1      -2.8207      2.00000
      2      -1.5333      2.00000
      3       1.7286      2.00000
      4       2.9515      2.00000
      5       6.5420      0.00000
      6       8.3342      0.00000
      7      13.1880      0.00000
      8      13.2858      0.00000
      9      15.0100      0.00000
     10      15.1983      0.00000
     11      18.6383      0.00000
     12      18.7721      0.00000

 k-point    34 :      -0.3636    0.3636    0.0000
  band No.  band energies     occupation 
      1      -2.7658      2.00000
      2      -1.5587      2.00000
      3       1.2638      2.00000
      4       3.1881      2.00000
      5       6.8098      0.00000
      6      10.0230      0.00000
      7      12.5084      0.00000
      8      13.0457      0.00000
      9      13.1977      0.00000
     10      13.7447      0.00000
     11      19.8855      0.00000
     12      20.4945      0.00000

 k-point    35 :       0.4545    0.4545    0.0000
  band No.  band energies     occupation 
      1      -2.9027      2.00000
      2      -1.5443      2.00000
      3       2.7321      2.00000
      4       2.7321      2.00000
      5       6.1340      0.00000
      6       6.4624      0.00000
      7      14.7665      0.00000
      8      14.7665      0.00000
      9      16.9297      0.00000
     10      16.9297      0.00000
     11      17.1295      0.00000
     12      17.2921      0.00000

 k-point    36 :      -0.4545    0.4545    0.0000
  band No.  band energies     occupation 
      1      -2.2803      2.00000
      2      -2.1680      2.00000
      3       2.3125      2.00000
      4       2.7563      2.00000
      5       6.3152      0.00000
      6       6.8777      0.00000
      7      14.6773      0.00000
      8      14.8728      0.00000
      9      15.5301      0.00000
     10      15.7705      0.00000
     11      18.5574      0.00000
     12      18.5708      0.00000

 k-point    37 :       0.2727    0.1818    0.0909
  band No.  band energies     occupation 
      1      -5.5624      2.00000
      2       2.4410      2.00000
      3       3.6914      2.00000
      4       4.6543      2.00000
      5       7.7922      0.00000
      6       8.9420      0.00000
      7       9.7713      0.00000
      8      10.2147      0.00000
      9      12.3672      0.00000
     10      13.8219      0.00000
     11      15.4797      0.00000
     12      16.8674      0.00000

 k-point    38 :       0.3636    0.1818    0.0909
  band No.  band energies     occupation 
      1      -5.0664      2.00000
      2       1.1592      2.00000
      3       3.1375      2.00000
      4       4.3463      2.00000
      5       8.0873      0.00000
      6       8.9300      0.00000
      7      10.1120      0.00000
      8      10.3373      0.00000
      9      12.9319      0.00000
     10      15.1552      0.00000
     11      15.6925      0.00000
     12      17.5812      0.00000

 k-point    39 :       0.4545    0.1818    0.0909
  band No.  band energies     occupation 
      1      -4.4319      2.00000
      2      -0.1395      2.00000
      3       2.8779      2.00000
      4       4.0157      2.00000
      5       8.0940      0.00000
      6       8.7957      0.00000
      7      10.1998      0.00000
      8      11.1570      0.00000
      9      14.0011      0.00000
     10      15.1604      0.00000
     11      16.8756      0.00000
     12      17.2335      0.00000

 k-point    40 :      -0.4545    0.1818    0.0909
  band No.  band energies     occupation 
      1      -3.8448      2.00000
      2      -1.0832      2.00000
      3       2.7754      2.00000
      4       3.8139      2.00000
      5       8.0493      0.00000
      6       8.6291      0.00000
      7      10.1423      0.00000
      8      12.5796      0.00000
      9      14.0908      0.00000
     10      15.2726      0.00000
     11      16.4476      0.00000
     12      17.8263      0.00000

 k-point    41 :       0.3636    0.2727    0.0909
  band No.  band energies     occupation 
      1      -4.8864      2.00000
      2       1.1651      2.00000
      3       2.9966      2.00000
      4       3.6844      2.00000
      5       7.2495      0.00000
      6       8.7633      0.00000
      7      10.3591      0.00000
      8      11.3876      0.00000
      9      13.8039      0.00000
     10      15.2929      0.00000
     11      16.7279      0.00000
     12      17.8568      0.00000

 k-point    42 :       0.4545    0.2727    0.0909
  band No.  band energies     occupation 
      1      -4.2899      2.00000
      2       0.1178      2.00000
      3       2.4345      2.00000
      4       3.3848      2.00000
      5       7.6074      0.00000
      6       9.1709      0.00000
      7      10.0483      0.00000
      8      11.7785      0.00000
      9      14.6766      0.00000
     10      16.0086      0.00000
     11      17.0902      0.00000
     12      17.8566      0.00000

 k-point    43 :      -0.4545    0.2727    0.0909
  band No.  band energies     occupation 
      1      -3.6439      2.00000
      2      -0.8529      2.00000
      3       2.0552      2.00000
      4       3.2358      2.00000
      5       7.7395      0.00000
      6       9.6880      0.00000
      7      10.4818      0.00000
      8      11.7364      0.00000
      9      14.3578      0.00000
     10      16.0393      0.00000
     11      17.0222      0.00000
     12      18.2415      0.00000

 k-point    44 :      -0.3636    0.2727    0.0909
  band No.  band energies     occupation 
      1      -3.3909      2.00000
      2      -1.1854      2.00000
      3       1.8329      2.00000
      4       3.3217      2.00000
      5       7.9423      0.00000
      6       9.4257      0.00000
      7      11.6165      0.00000
      8      12.1534      0.00000
      9      12.6155      0.00000
     10      15.3530      0.00000
     11      17.4785      0.00000
     12      18.2909      0.00000

 k-point    45 :      -0.2727    0.2727    0.0909
  band No.  band energies     occupation 
      1      -3.8743      2.00000
      2      -0.5259      2.00000
      3       1.8294      2.00000
      4       3.6055      2.00000
      5       8.2847      0.00000
      6       9.2435      0.00000
      7      10.9260      0.00000
      8      11.5745      0.00000
      9      13.8478      0.00000
     10      14.0758      0.00000
     11      17.7167      0.00000
     12      19.2252      0.00000

 k-point    46 :      -0.1818    0.2727    0.0909
  band No.  band energies     occupation 
      1      -4.5247      2.00000
      2       0.4238      2.00000
      3       2.2012      2.00000
      4       4.0042      2.00000
      5       8.6909      0.00000
      6       8.8308      0.00000
      7      10.0854      0.00000
      8      11.1072      0.00000
      9      12.9412      0.00000
     10      15.7429      0.00000
     11      17.1708      0.00000
     12      17.8575      0.00000

 k-point    47 :       0.4545    0.3636    0.0909
  band No.  band energies     occupation 
      1      -3.9656      2.00000
      2      -0.1789      2.00000
      3       2.5353      2.00000
      4       2.9147      2.00000
      5       6.9085      0.00000
      6       7.7664      0.00000
      7      11.7107      0.00000
      8      13.0952      0.00000
      9      15.4223      0.00000
     10      16.5673      0.00000
     11      17.0454      0.00000
     12      18.6061      0.00000

 k-point    48 :      -0.4545    0.3636    0.0909
  band No.  band energies     occupation 
      1      -3.3097      2.00000
      2      -0.9781      2.00000
      3       1.9182      2.00000
      4       2.7432      2.00000
      5       7.2528      0.00000
      6       8.5507      0.00000
      7      11.3691      0.00000
      8      13.4423      0.00000
      9      14.6516      0.00000
     10      16.4874      0.00000
     11      17.3457      0.00000
     12      19.0100      0.00000

 k-point    49 :      -0.3636    0.3636    0.0909
  band No.  band energies     occupation 
      1      -2.8628      2.00000
      2      -1.4567      2.00000
      3       1.4179      2.00000
      4       2.8547      2.00000
      5       7.4615      0.00000
      6      10.0950      0.00000
      7      11.0682      0.00000
      8      12.6370      0.00000
      9      13.4281      0.00000
     10      15.4443      0.00000
     11      18.3420      0.00000
     12      19.5455      0.00000

 k-point    50 :      -0.2727    0.3636    0.0909
  band No.  band energies     occupation 
      1      -3.2352      2.00000
      2      -1.0672      2.00000
      3       1.3175      2.00000
      4       3.1662      2.00000
      5       7.8189      0.00000
      6      10.4881      0.00000
      7      11.1898      0.00000
      8      12.0760      0.00000
      9      12.8916      0.00000
     10      14.1208      0.00000
     11      19.4650      0.00000
     12      19.7548      0.00000

 k-point    51 :      -0.4545    0.4545    0.0909
  band No.  band energies     occupation 
      1      -2.8336      2.00000
      2      -1.5442      2.00000
      3       2.3495      2.00000
      4       2.4684      2.00000
      5       6.8478      0.00000
      6       7.1204      0.00000
      7      13.2123      0.00000
      8      14.5462      0.00000
      9      15.2904      0.00000
     10      16.6412      0.00000
     11      17.3496      0.00000
     12      18.7954      0.00000

 k-point    52 :      -0.3636    0.4545    0.0909
  band No.  band energies     occupation 
      1      -2.3510      2.00000
      2      -1.9756      2.00000
      3       1.7211      2.00000
      4       2.5380      2.00000
      5       7.1252      0.00000
      6       8.3444      0.00000
      7      12.7719      0.00000
      8      12.9965      0.00000
      9      15.0223      0.00000
     10      15.6789      0.00000
     11      18.2136      0.00000
     12      19.0267      0.00000

 k-point    53 :      -0.4545    0.3636    0.1818
  band No.  band energies     occupation 
      1      -3.6686      2.00000
      2      -0.5591      2.00000
      3       1.8076      2.00000
      4       2.9403      2.00000
      5       8.5244      0.00000
      6       9.1946      0.00000
      7       9.6693      0.00000
      8      13.0033      0.00000
      9      14.2743      0.00000
     10      14.8415      0.00000
     11      18.8873      0.00000
     12      19.0506      0.00000

 k-point    54 :      -0.3636    0.3636    0.1818
  band No.  band energies     occupation 
      1      -3.0591      2.00000
      2      -1.2375      2.00000
      3       1.5363      2.00000
      4       2.6331      2.00000
      5       8.9071      0.00000
      6       9.2283      0.00000
      7      10.4742      0.00000
      8      12.3003      0.00000
      9      13.4565      0.00000
     10      15.9609      0.00000
     11      17.8124      0.00000
     12      19.2558      0.00000

 k-point    55 :      -0.3636    0.4545    0.1818
  band No.  band energies     occupation 
      1      -2.6584      2.00000
      2      -1.5897      2.00000
      3       1.7630      2.00000
      4       2.1343      2.00000
      5       8.4509      0.00000
      6       8.6642      0.00000
      7      10.9703      0.00000
      8      12.5320      0.00000
      9      14.9407      0.00000
     10      16.3744      0.00000
     11      17.6868      0.00000
     12      18.9826      0.00000

 k-point    56 :      -0.2727    0.4545    0.1818
  band No.  band energies     occupation 
      1      -2.4688      2.00000
      2      -1.7482      2.00000
      3       1.4969      2.00000
      4       2.1692      2.00000
      5       8.7986      0.00000
      6      10.0824      0.00000
      7      10.7207      0.00000
      8      10.7514      0.00000
      9      14.9520      0.00000
     10      16.0377      0.00000
     11      17.9762      0.00000
     12      19.1356      0.00000


--------------------------------------------------------------------------------------------------------


 soft charge-density along one line, spin component           1
         0         1         2         3         4         5         6         7         8         9
 total charge-density along one line
 
 pseudopotential strength for first ion, spin component:           1
 18.460  25.755  -0.000  -0.000  -0.000  -0.000  -0.000  -0.000
 25.755  35.937  -0.000  -0.000  -0.000  -0.000  -0.000  -0.000
 -0.000  -0.000   4.184   0.000   0.000   7.796   0.000   0.000
 -0.000  -0.000   0.000   4.184   0.000   0.000   7.796   0.000
 -0.000  -0.000   0.000   0.000   4.184   0.000   0.000   7.796
 -0.000  -0.000   7.796   0.000   0.000  14.540   0.000   0.000
 -0.000  -0.000   0.000   7.796   0.000   0.000  14.540   0.000
 -0.000  -0.000   0.000   0.000   7.796   0.000   0.000  14.540
 total augmentation occupancy for first ion, spin component:           1
  5.828  -2.217  -0.000   0.000   0.000   0.000  -0.000   0.000
 -2.217   0.953   0.000   0.000  -0.000   0.000  -0.000  -0.000
  0.000   0.000   3.279   0.000  -0.000  -0.799   0.000   0.000
  0.000   0.000  -0.000   3.279   0.000   0.000  -0.799   0.000
  0.000  -0.000   0.000  -0.000   3.279   0.000  -0.000  -0.799
  0.000   0.000  -0.799   0.000   0.000   0.202  -0.000   0.000
 -0.000  -0.000   0.000  -0.799   0.000   0.000   0.202  -0.000
 -0.000  -0.000   0.000  -0.000  -0.799  -0.000   0.000   0.202


------------------------ aborting loop because EDIFF is reached ----------------------------------------


    CHARGE:  cpu time    0.0118: real time    0.0118
    FORLOC:  cpu time    0.0002: real time    0.0002
    FORNL :  cpu time    0.0062: real time    0.0062
    STRESS:  cpu time    0.0709: real time    0.0709
    FORCOR:  cpu time    0.0050: real time    0.0050
    FORHAR:  cpu time    0.0011: real time    0.0011
    MIXING:  cpu time    0.0002: real time    0.0002
    OFIELD:  cpu time    0.0000: real time    0.0000

  FORCE on cell =-STRESS in cart. coord.  units (eV):
  Direction    XX          YY          ZZ          XY          YZ          ZX
  --------------------------------------------------------------------------------------
  Alpha Z     3.23733     3.23733     3.23733
  Ewald     -75.21821   -75.21821   -75.21821     0.00000     0.00000    -0.00000
  Hartree     5.12214     5.12214     5.12214     0.00000     0.00000     0.00000
  E(xc)     -25.16843   -25.16843   -25.16843    -0.00000    -0.00000    -0.00000
  Local     -29.88958   -29.88958   -29.88958     0.00002     0.00002     0.00002
  n-local    78.30976    79.68636    73.96988     2.16971    -1.26127     0.52917
  augment   -11.60742   -11.60742   -11.60742    -0.00002    -0.00002    -0.00002
  Kinetic    57.93122    55.49226    53.90887     3.56875    -0.70497     1.03089
  Fock        0.00000     0.00000     0.00000     0.00000     0.00000     0.00000
  -------------------------------------------------------------------------------------
  Total      -0.42473    -0.42473    -0.42473     0.00000     0.00000    -0.00000
  in kB     -16.36043   -16.36043   -16.36043     0.00000     0.00000    -0.00000
  external pressure =      -16.36 kB  Pullay stress =        0.00 kB


 VOLUME and BASIS-vectors are now :
 -----------------------------------------------------------------------------
  energy-cutoff  :      240.00
  volume of cell :       41.59
      direct lattice vectors                 reciprocal lattice vectors
     0.000000000  2.750000000  2.750000000    -0.181818182  0.181818182  0.181818182
     2.750000000  0.000000000  2.750000000     0.181818182 -0.181818182  0.181818182
     2.750000000  2.750000000  0.000000000     0.181818182  0.181818182 -0.181818182

  length of vectors
     3.889087297  3.889087297  3.889087297     0.314918329  0.314918329  0.314918329


 FORCES acting on ions
    electron-ion (+dipol)            ewald-force                    non-local-force                 convergence-correction
 -----------------------------------------------------------------------------------------------
   0.924E-06 0.924E-06 0.987E-06   -.224E-14 0.478E-15 0.477E-15   0.139E-16 0.173E-16 0.416E-16   -.802E-06 -.802E-06 -.802E-06
   -.924E-06 -.924E-06 -.987E-06   0.208E-14 -.115E-14 -.887E-15   -.659E-16 -.694E-17 0.104E-16   0.802E-06 0.802E-06 0.802E-06
 -----------------------------------------------------------------------------------------------
   0.115E-12 -.468E-14 -.277E-13   -.158E-15 -.674E-15 -.410E-15   -.520E-16 0.104E-16 0.520E-16   -.105E-14 -.139E-14 -.842E-15
 
 
 POSITION                                       TOTAL-FORCE (eV/Angst)
 -----------------------------------------------------------------------------------
      4.81250      4.81250      4.81250        -0.000000      0.000000     -0.000000
      0.68750      0.68750      0.68750         0.000000     -0.000000      0.000000
 -----------------------------------------------------------------------------------
    total drift:                                0.000000     -0.000000     -0.000000


--------------------------------------------------------------------------------------------------------



  FREE ENERGIE OF THE ION-ELECTRON SYSTEM (eV)
  ---------------------------------------------------
  free  energy   TOTEN  =       -10.82308611 eV

  energy  without entropy=      -10.82308611  energy(sigma->0) =      -10.82308611
 
 d Force = 0.0000000E+00[ 0.000E+00, 0.000E+00]  d Energy =-0.4134566E-02 0.413E-02
 d Force = 0.0000000E+00[ 0.000E+00, 0.000E+00]  d Ewald  =-0.1443309E+01 0.144E+01


--------------------------------------------------------------------------------------------------------


    POTLOK:  cpu time    0.0068: real time    0.0068


--------------------------------------------------------------------------------------------------------


