<?xml version="1.0" encoding="ISO-8859-1"?>
<modeling>
 <generator>
  <i name="program" type="string">vasp </i>
  <i name="version" type="string">5.4.4.18Apr17-6-g9f103f2a35  </i>
  <i name="subversion" type="string">(build Mar 30 2023 15:39:25) complex            parallel </i>
  <i name="platform" type="string">LinuxIFC </i>
  <i name="date" type="string">2023 05 02 </i>
  <i name="time" type="string">16:58:37 </i>
 </generator>
 <incar>
  <i type="string" name="SYSTEM"> cd Si</i>
  <i type="int" name="ISTART">     0</i>
  <i type="string" name="PREC">accurate</i>
  <i type="int" name="IBRION">     2</i>
  <i name="EDIFF">      0.00000100</i>
  <i name="EDIFFG">     -0.00000100</i>
  <i type="int" name="NSW">    15</i>
  <i type="int" name="ISIF">     3</i>
  <i name="ENCUT">    240.00000000</i>
  <i type="int" name="ISMEAR">    -5</i>
  <v type="int" name="KPOINT_BSE">    -1     0     0     0</v>
 </incar>
 <structure name="primitive_cell" >
  <crystal>
   <varray name="basis" >
    <v>       0.00000000       2.75000000       2.75000000 </v>
    <v>       2.75000000       0.00000000       2.75000000 </v>
    <v>       2.75000000       2.75000000       0.00000000 </v>
   </varray>
   <i name="volume">     41.59375000 </i>
   <varray name="rec_basis" >
    <v>      -0.18181818       0.18181818       0.18181818 </v>
    <v>       0.18181818      -0.18181818       0.18181818 </v>
    <v>       0.18181818       0.18181818      -0.18181818 </v>
   </varray>
  </crystal>
  <varray name="positions" >
   <v>      -0.12500000      -0.12500000      -0.12500000 </v>
   <v>       0.12500000       0.12500000       0.12500000 </v>
  </varray>
 </structure>
 <varray name="primitive_index" >
  <v type="int" >        1 </v>
  <v type="int" >        2 </v>
 </varray>
 <kpoints>
  <generation param="Monkhorst-Pack">
   <v type="int" name="divisions">      11       11       11 </v>
   <v name="usershift">      0.00000000       0.00000000       0.00000000 </v>
   <v name="genvec1">      0.09090909       0.00000000       0.00000000 </v>
   <v name="genvec2">      0.00000000       0.09090909       0.00000000 </v>
   <v name="genvec3">      0.00000000       0.00000000       0.09090909 </v>
   <v name="shift">      0.00000000       0.00000000       0.00000000 </v>
  </generation>
  <varray name="kpointlist" >
   <v>       0.00000000       0.00000000       0.00000000 </v>
   <v>       0.09090909       0.00000000       0.00000000 </v>
   <v>       0.18181818       0.00000000       0.00000000 </v>
   <v>       0.27272727       0.00000000       0.00000000 </v>
   <v>       0.36363636       0.00000000       0.00000000 </v>
   <v>       0.45454545       0.00000000       0.00000000 </v>
   <v>       0.09090909       0.09090909       0.00000000 </v>
   <v>       0.18181818       0.09090909       0.00000000 </v>
   <v>       0.27272727       0.09090909       0.00000000 </v>
   <v>       0.36363636       0.09090909       0.00000000 </v>
   <v>       0.45454545       0.09090909       0.00000000 </v>
   <v>      -0.45454545       0.09090909       0.00000000 </v>
   <v>      -0.36363636       0.09090909       0.00000000 </v>
   <v>      -0.27272727       0.09090909       0.00000000 </v>
   <v>      -0.18181818       0.09090909       0.00000000 </v>
   <v>      -0.09090909       0.09090909       0.00000000 </v>
   <v>       0.18181818       0.18181818       0.00000000 </v>
   <v>       0.27272727       0.18181818       0.00000000 </v>
   <v>       0.36363636       0.18181818       0.00000000 </v>
   <v>       0.45454545       0.18181818       0.00000000 </v>
   <v>      -0.45454545       0.18181818       0.00000000 </v>
   <v>      -0.36363636       0.18181818       0.00000000 </v>
   <v>      -0.27272727       0.18181818       0.00000000 </v>
   <v>      -0.18181818       0.18181818       0.00000000 </v>
   <v>       0.27272727       0.27272727       0.00000000 </v>
   <v>       0.36363636       0.27272727       0.00000000 </v>
   <v>       0.45454545       0.27272727       0.00000000 </v>
   <v>      -0.45454545       0.27272727       0.00000000 </v>
   <v>      -0.36363636       0.27272727       0.00000000 </v>
   <v>      -0.27272727       0.27272727       0.00000000 </v>
   <v>       0.36363636       0.36363636       0.00000000 </v>
   <v>       0.45454545       0.36363636       0.00000000 </v>
   <v>      -0.45454545       0.36363636       0.00000000 </v>
   <v>      -0.36363636       0.36363636       0.00000000 </v>
   <v>       0.45454545       0.45454545       0.00000000 </v>
   <v>      -0.45454545       0.45454545       0.00000000 </v>
   <v>       0.27272727       0.18181818       0.09090909 </v>
   <v>       0.36363636       0.18181818       0.09090909 </v>
   <v>       0.45454545       0.18181818       0.09090909 </v>
   <v>      -0.45454545       0.18181818       0.09090909 </v>
   <v>       0.36363636       0.27272727       0.09090909 </v>
   <v>       0.45454545       0.27272727       0.09090909 </v>
   <v>      -0.45454545       0.27272727       0.09090909 </v>
   <v>      -0.36363636       0.27272727       0.09090909 </v>
   <v>      -0.27272727       0.27272727       0.09090909 </v>
   <v>      -0.18181818       0.27272727       0.09090909 </v>
   <v>       0.45454545       0.36363636       0.09090909 </v>
   <v>      -0.45454545       0.36363636       0.09090909 </v>
   <v>      -0.36363636       0.36363636       0.09090909 </v>
   <v>      -0.27272727       0.36363636       0.09090909 </v>
   <v>      -0.45454545       0.45454545       0.09090909 </v>
   <v>      -0.36363636       0.45454545       0.09090909 </v>
   <v>      -0.45454545       0.36363636       0.18181818 </v>
   <v>      -0.36363636       0.36363636       0.18181818 </v>
   <v>      -0.36363636       0.45454545       0.18181818 </v>
   <v>      -0.27272727       0.45454545       0.18181818 </v>
  </varray>
  <varray name="weights" >
   <v>       0.00075131 </v>
   <v>       0.00601052 </v>
   <v>       0.00601052 </v>
   <v>       0.00601052 </v>
   <v>       0.00601052 </v>
   <v>       0.00601052 </v>
   <v>       0.00450789 </v>
   <v>       0.01803156 </v>
   <v>       0.01803156 </v>
   <v>       0.01803156 </v>
   <v>       0.01803156 </v>
   <v>       0.01803156 </v>
   <v>       0.01803156 </v>
   <v>       0.01803156 </v>
   <v>       0.01803156 </v>
   <v>       0.00901578 </v>
   <v>       0.00450789 </v>
   <v>       0.01803156 </v>
   <v>       0.01803156 </v>
   <v>       0.01803156 </v>
   <v>       0.01803156 </v>
   <v>       0.01803156 </v>
   <v>       0.01803156 </v>
   <v>       0.00901578 </v>
   <v>       0.00450789 </v>
   <v>       0.01803156 </v>
   <v>       0.01803156 </v>
   <v>       0.01803156 </v>
   <v>       0.01803156 </v>
   <v>       0.00901578 </v>
   <v>       0.00450789 </v>
   <v>       0.01803156 </v>
   <v>       0.01803156 </v>
   <v>       0.00901578 </v>
   <v>       0.00450789 </v>
   <v>       0.00901578 </v>
   <v>       0.01803156 </v>
   <v>       0.03606311 </v>
   <v>       0.03606311 </v>
   <v>       0.03606311 </v>
   <v>       0.01803156 </v>
   <v>       0.03606311 </v>
   <v>       0.03606311 </v>
   <v>       0.03606311 </v>
   <v>       0.03606311 </v>
   <v>       0.01803156 </v>
   <v>       0.01803156 </v>
   <v>       0.03606311 </v>
   <v>       0.03606311 </v>
   <v>       0.01803156 </v>
   <v>       0.01803156 </v>
   <v>       0.01803156 </v>
   <v>       0.01803156 </v>
   <v>       0.03606311 </v>
   <v>       0.01803156 </v>
   <v>       0.01803156 </v>
  </varray>
  <varray name="tetrahedronlist"  type="int" >
   <v type="int" >       24        1        2        2        7 </v>
   <v type="int" >       48        2        7        8       16 </v>
   <v type="int" >       48        2        3        8       16 </v>
   <v type="int" >       24        2        2        7       16 </v>
   <v type="int" >       48        3        8        9       15 </v>
   <v type="int" >       48        3        4        9       15 </v>
   <v type="int" >       48        3        8       15       16 </v>
   <v type="int" >       48        4        9       10       14 </v>
   <v type="int" >       48        4        5       10       14 </v>
   <v type="int" >       48        4        9       14       15 </v>
   <v type="int" >       48        5       10       11       13 </v>
   <v type="int" >       48        5        6       11       13 </v>
   <v type="int" >       48        5       10       13       14 </v>
   <v type="int" >       48        6       11       12       12 </v>
   <v type="int" >       24        6        6       12       12 </v>
   <v type="int" >       48        6       11       12       13 </v>
   <v type="int" >       24        7        8        8       17 </v>
   <v type="int" >       24        7        8        8       16 </v>
   <v type="int" >       48        8       17       18       37 </v>
   <v type="int" >       48        8        9       18       37 </v>
   <v type="int" >       48        8        9       15       37 </v>
   <v type="int" >       24        8        8       17       37 </v>
   <v type="int" >       24        8        8       16       37 </v>
   <v type="int" >       48        8       15       16       37 </v>
   <v type="int" >       48        9       18       19       38 </v>
   <v type="int" >       48        9       10       19       38 </v>
   <v type="int" >       48        9       10       14       38 </v>
   <v type="int" >       48        9       18       37       38 </v>
   <v type="int" >       48        9       15       37       38 </v>
   <v type="int" >       48        9       14       15       38 </v>
   <v type="int" >       48       10       19       20       39 </v>
   <v type="int" >       48       10       11       20       39 </v>
   <v type="int" >       48       10       11       13       39 </v>
   <v type="int" >       48       10       19       38       39 </v>
   <v type="int" >       48       10       14       38       39 </v>
   <v type="int" >       48       10       13       14       39 </v>
   <v type="int" >       48       11       20       21       40 </v>
   <v type="int" >       48       11       12       21       40 </v>
   <v type="int" >       48       11       12       12       40 </v>
   <v type="int" >       48       11       20       39       40 </v>
   <v type="int" >       48       11       13       39       40 </v>
   <v type="int" >       48       11       12       13       40 </v>
   <v type="int" >       48       12       21       22       40 </v>
   <v type="int" >       48       12       13       22       40 </v>
   <v type="int" >       48       12       21       40       40 </v>
   <v type="int" >       24       12       12       40       40 </v>
   <v type="int" >       48       13       22       23       39 </v>
   <v type="int" >       48       13       14       23       39 </v>
   <v type="int" >       48       13       22       39       40 </v>
   <v type="int" >       48       14       23       24       38 </v>
   <v type="int" >       48       14       15       24       38 </v>
   <v type="int" >       48       14       23       38       39 </v>
   <v type="int" >       24       15       15       24       37 </v>
   <v type="int" >       24       15       15       16       37 </v>
   <v type="int" >       48       15       24       37       38 </v>
   <v type="int" >       24       17       18       18       25 </v>
   <v type="int" >       24       17       18       18       37 </v>
   <v type="int" >       48       18       25       26       41 </v>
   <v type="int" >       48       18       19       26       41 </v>
   <v type="int" >       48       18       19       38       41 </v>
   <v type="int" >       24       18       18       25       41 </v>
   <v type="int" >       24       18       18       37       41 </v>
   <v type="int" >       48       18       37       38       41 </v>
   <v type="int" >       48       19       26       27       42 </v>
   <v type="int" >       48       19       20       27       42 </v>
   <v type="int" >       48       19       20       39       42 </v>
   <v type="int" >       48       19       26       41       42 </v>
   <v type="int" >       48       19       38       41       42 </v>
   <v type="int" >       48       19       38       39       42 </v>
   <v type="int" >       48       20       27       28       43 </v>
   <v type="int" >       48       20       21       28       43 </v>
   <v type="int" >       48       20       21       40       43 </v>
   <v type="int" >       48       20       27       42       43 </v>
   <v type="int" >       48       20       39       42       43 </v>
   <v type="int" >       48       20       39       40       43 </v>
   <v type="int" >       48       21       28       29       44 </v>
   <v type="int" >       48       21       22       29       44 </v>
   <v type="int" >       48       21       22       40       44 </v>
   <v type="int" >       48       21       28       43       44 </v>
   <v type="int" >       48       21       40       43       44 </v>
   <v type="int" >       48       21       40       40       44 </v>
   <v type="int" >       48       22       29       30       45 </v>
   <v type="int" >       48       22       23       30       45 </v>
   <v type="int" >       48       22       23       39       45 </v>
   <v type="int" >       48       22       29       44       45 </v>
   <v type="int" >       48       22       40       44       45 </v>
   <v type="int" >       48       22       39       40       45 </v>
   <v type="int" >       24       23       23       30       46 </v>
   <v type="int" >       24       23       23       24       46 </v>
   <v type="int" >       48       23       24       38       46 </v>
   <v type="int" >       48       23       30       45       46 </v>
   <v type="int" >       48       23       39       45       46 </v>
   <v type="int" >       48       23       38       39       46 </v>
   <v type="int" >       24       24       38       38       46 </v>
   <v type="int" >       24       24       37       38       38 </v>
   <v type="int" >       24       25       26       26       31 </v>
   <v type="int" >       24       25       26       26       41 </v>
   <v type="int" >       48       26       31       32       47 </v>
   <v type="int" >       48       26       27       32       47 </v>
   <v type="int" >       48       26       27       42       47 </v>
   <v type="int" >       24       26       26       31       47 </v>
   <v type="int" >       24       26       26       41       47 </v>
   <v type="int" >       48       26       41       42       47 </v>
   <v type="int" >       48       27       32       33       48 </v>
   <v type="int" >       48       27       28       33       48 </v>
   <v type="int" >       48       27       28       43       48 </v>
   <v type="int" >       48       27       32       47       48 </v>
   <v type="int" >       48       27       42       47       48 </v>
   <v type="int" >       48       27       42       43       48 </v>
   <v type="int" >       48       28       33       34       49 </v>
   <v type="int" >       48       28       29       34       49 </v>
   <v type="int" >       48       28       29       44       49 </v>
   <v type="int" >       48       28       33       48       49 </v>
   <v type="int" >       48       28       43       48       49 </v>
   <v type="int" >       48       28       43       44       49 </v>
   <v type="int" >       24       29       29       34       50 </v>
   <v type="int" >       24       29       29       30       50 </v>
   <v type="int" >       48       29       30       45       50 </v>
   <v type="int" >       48       29       34       49       50 </v>
   <v type="int" >       48       29       44       49       50 </v>
   <v type="int" >       48       29       44       45       50 </v>
   <v type="int" >       24       30       45       45       50 </v>
   <v type="int" >       24       30       45       45       46 </v>
   <v type="int" >       24       31       32       32       35 </v>
   <v type="int" >       24       31       32       32       47 </v>
   <v type="int" >       48       32       35       36       51 </v>
   <v type="int" >       48       32       33       36       51 </v>
   <v type="int" >       48       32       33       48       51 </v>
   <v type="int" >       24       32       32       35       51 </v>
   <v type="int" >       24       32       32       47       51 </v>
   <v type="int" >       48       32       47       48       51 </v>
   <v type="int" >       24       33       33       36       52 </v>
   <v type="int" >       24       33       33       34       52 </v>
   <v type="int" >       48       33       34       49       52 </v>
   <v type="int" >       48       33       36       51       52 </v>
   <v type="int" >       48       33       48       51       52 </v>
   <v type="int" >       48       33       48       49       52 </v>
   <v type="int" >       24       34       49       49       52 </v>
   <v type="int" >       24       34       49       49       50 </v>
   <v type="int" >       12       35       35       36       36 </v>
   <v type="int" >       24       35       36       36       51 </v>
   <v type="int" >       12       36       36       51       51 </v>
   <v type="int" >       24       36       51       51       52 </v>
   <v type="int" >       24       37       38       38       41 </v>
   <v type="int" >       48       38       41       42       46 </v>
   <v type="int" >       48       38       39       42       46 </v>
   <v type="int" >       24       38       38       41       46 </v>
   <v type="int" >       48       39       42       43       45 </v>
   <v type="int" >       48       39       40       43       45 </v>
   <v type="int" >       48       39       42       45       46 </v>
   <v type="int" >       48       40       43       44       44 </v>
   <v type="int" >       24       40       40       44       44 </v>
   <v type="int" >       48       40       43       44       45 </v>
   <v type="int" >       24       41       42       42       47 </v>
   <v type="int" >       24       41       42       42       46 </v>
   <v type="int" >       48       42       47       48       53 </v>
   <v type="int" >       48       42       43       48       53 </v>
   <v type="int" >       48       42       43       45       53 </v>
   <v type="int" >       24       42       42       47       53 </v>
   <v type="int" >       24       42       42       46       53 </v>
   <v type="int" >       48       42       45       46       53 </v>
   <v type="int" >       48       43       48       49       54 </v>
   <v type="int" >       48       43       44       49       54 </v>
   <v type="int" >       48       43       44       44       54 </v>
   <v type="int" >       48       43       48       53       54 </v>
   <v type="int" >       48       43       45       53       54 </v>
   <v type="int" >       48       43       44       45       54 </v>
   <v type="int" >       48       44       49       50       54 </v>
   <v type="int" >       48       44       45       50       54 </v>
   <v type="int" >       48       44       49       54       54 </v>
   <v type="int" >       24       44       44       54       54 </v>
   <v type="int" >       24       45       45       50       53 </v>
   <v type="int" >       24       45       45       46       53 </v>
   <v type="int" >       48       45       50       53       54 </v>
   <v type="int" >       24       47       48       48       51 </v>
   <v type="int" >       24       47       48       48       53 </v>
   <v type="int" >       48       48       51       52       55 </v>
   <v type="int" >       48       48       49       52       55 </v>
   <v type="int" >       48       48       49       54       55 </v>
   <v type="int" >       24       48       48       51       55 </v>
   <v type="int" >       24       48       48       53       55 </v>
   <v type="int" >       48       48       53       54       55 </v>
   <v type="int" >       24       49       49       52       56 </v>
   <v type="int" >       24       49       49       50       56 </v>
   <v type="int" >       48       49       50       54       56 </v>
   <v type="int" >       48       49       52       55       56 </v>
   <v type="int" >       48       49       54       55       56 </v>
   <v type="int" >       48       49       54       54       56 </v>
   <v type="int" >       24       50       54       54       56 </v>
   <v type="int" >       24       50       53       54       54 </v>
   <v type="int" >       12       51       51       52       52 </v>
   <v type="int" >       24       51       52       52       55 </v>
   <v type="int" >       12       52       52       55       55 </v>
   <v type="int" >       24       52       55       55       56 </v>
   <v type="int" >       24       53       54       54       55 </v>
   <v type="int" >       48       54       55       56       56 </v>
   <v type="int" >       24       54       54       56       56 </v>
   <v type="int" >       24       54       54       55       56 </v>
   <v type="int" >       12       55       55       56       56 </v>
   <v type="int" >       24       55       56       56       56 </v>
   <v type="int" >        6       56       56       56       56 </v>
  </varray>
  <i name="volumeweight">      0.00012522 </i>
 </kpoints>
 <parameters>
  <separator name="general" >
   <i type="string" name="SYSTEM">cd Si</i>
   <i type="logical" name="LCOMPAT"> F  </i>
  </separator>
  <separator name="electronic" >
   <i type="string" name="PREC">accura</i>
   <i name="ENMAX">    240.00000000</i>
   <i name="ENAUG">    322.06900000</i>
   <i name="EDIFF">      0.00000100</i>
   <i type="int" name="IALGO">    38</i>
   <i type="int" name="IWAVPR">    11</i>
   <i type="int" name="NBANDS">    12</i>
   <i name="NELECT">      8.00000000</i>
   <i type="int" name="TURBO">     0</i>
   <i type="int" name="IRESTART">     0</i>
   <i type="int" name="NREBOOT">     0</i>
   <i type="int" name="NMIN">     0</i>
   <i name="EREF">      0.00000000</i>
   <separator name="electronic smearing" >
    <i type="int" name="ISMEAR">    -5</i>
    <i name="SIGMA">      0.20000000</i>
    <i name="KSPACING">      0.50000000</i>
    <i type="logical" name="KGAMMA"> T  </i>
   </separator>
   <separator name="electronic projectors" >
    <i type="logical" name="LREAL"> F  </i>
    <v name="ROPT">      0.00000000</v>
    <i type="int" name="LMAXPAW">  -100</i>
    <i type="int" name="LMAXMIX">     2</i>
    <i type="logical" name="NLSPLINE"> F  </i>
   </separator>
   <separator name="electronic startup" >
    <i type="int" name="ISTART">     0</i>
    <i type="int" name="ICHARG">     2</i>
    <i type="int" name="INIWAV">     1</i>
   </separator>
   <separator name="electronic spin" >
    <i type="int" name="ISPIN">     1</i>
    <i type="logical" name="LNONCOLLINEAR"> F  </i>
    <v name="MAGMOM">      1.00000000      1.00000000</v>
    <i name="NUPDOWN">     -1.00000000</i>
    <i type="logical" name="LSORBIT"> F  </i>
    <v name="SAXIS">      0.00000000      0.00000000      1.00000000</v>
    <i type="logical" name="LSPIRAL"> F  </i>
    <v name="QSPIRAL">      0.00000000      0.00000000      0.00000000</v>
    <i type="logical" name="LZEROZ"> F  </i>
   </separator>
   <separator name="electronic exchange-correlation" >
    <i type="logical" name="LASPH"> F  </i>
    <i type="logical" name="LMETAGGA"> F  </i>
   </separator>
   <separator name="electronic convergence" >
    <i type="int" name="NELM">    60</i>
    <i type="int" name="NELMDL">    -5</i>
    <i type="int" name="NELMIN">     2</i>
    <i name="ENINI">    240.00000000</i>
    <separator name="electronic convergence detail" >
     <i type="logical" name="LDIAG"> T  </i>
     <i type="logical" name="LSUBROT"> F  </i>
     <i name="WEIMIN">      0.00100000</i>
     <i name="EBREAK">      0.00000000</i>
     <i name="DEPER">      0.30000000</i>
     <i type="int" name="NRMM">     4</i>
     <i name="TIME">      0.40000000</i>
    </separator>
   </separator>
   <separator name="electronic mixer" >
    <i name="AMIX">      0.40000000</i>
    <i name="BMIX">      1.00000000</i>
    <i name="AMIN">      0.10000000</i>
    <i name="AMIX_MAG">      1.60000000</i>
    <i name="BMIX_MAG">      1.00000000</i>
    <separator name="electronic mixer details" >
     <i type="int" name="IMIX">     4</i>
     <i type="logical" name="MIXFIRST"> F  </i>
     <i type="int" name="MAXMIX">   -45</i>
     <i name="WC">    100.00000000</i>
     <i type="int" name="INIMIX">     1</i>
     <i type="int" name="MIXPRE">     1</i>
     <i type="int" name="MREMOVE">     5</i>
    </separator>
   </separator>
   <separator name="electronic dipolcorrection" >
    <i type="logical" name="LDIPOL"> F  </i>
    <i type="logical" name="LMONO"> F  </i>
    <i type="int" name="IDIPOL">     0</i>
    <i name="EPSILON">      1.00000000</i>
    <v name="DIPOL">   -100.00000000   -100.00000000   -100.00000000</v>
    <i name="EFIELD">      0.00000000</i>
   </separator>
  </separator>
  <separator name="grids" >
   <i type="int" name="NGX">    20</i>
   <i type="int" name="NGY">    20</i>
   <i type="int" name="NGZ">    20</i>
   <i type="int" name="NGXF">    40</i>
   <i type="int" name="NGYF">    40</i>
   <i type="int" name="NGZF">    40</i>
   <i type="logical" name="ADDGRID"> F  </i>
  </separator>
  <separator name="ionic" >
   <i type="int" name="NSW">    15</i>
   <i type="int" name="IBRION">     2</i>
   <i type="int" name="MDALGO">     0</i>
   <i type="int" name="ISIF">     3</i>
   <i name="PSTRESS">      0.00000000</i>
   <i name="EDIFFG">     -0.00000100</i>
   <i type="int" name="NFREE">     1</i>
   <i name="POTIM">      0.50000000</i>
   <i name="SMASS">     -3.00000000</i>
   <i name="SCALEE">      1.00000000</i>
  </separator>
  <separator name="ionic md" >
   <i name="TEBEG">      0.00010000</i>
   <i name="TEEND">      0.00010000</i>
   <i type="int" name="NBLOCK">     1</i>
   <i type="int" name="KBLOCK">    15</i>
   <i type="int" name="NPACO">   256</i>
   <i name="APACO">     16.00000000</i>
  </separator>
  <separator name="symmetry" >
   <i type="int" name="ISYM">     2</i>
   <i name="SYMPREC">      0.00001000</i>
  </separator>
  <separator name="dos" >
   <i type="int" name="LORBIT">     0</i>
   <v name="RWIGS">     -1.00000000</v>
   <i type="int" name="NEDOS">   301</i>
   <i name="EMIN">     10.00000000</i>
   <i name="EMAX">    -10.00000000</i>
   <i name="EFERMI">      0.00000000</i>
  </separator>
  <separator name="writing" >
   <i type="int" name="NWRITE">     2</i>
   <i type="logical" name="LWAVE"> T  </i>
   <i type="logical" name="LDOWNSAMPLE"> F  </i>
   <i type="logical" name="LCHARG"> T  </i>
   <i type="logical" name="LPARD"> F  </i>
   <i type="logical" name="LVTOT"> F  </i>
   <i type="logical" name="LVHAR"> F  </i>
   <i type="logical" name="LELF"> F  </i>
   <i type="logical" name="LOPTICS"> F  </i>
   <v name="STM">      0.00000000      0.00000000      0.00000000      0.00000000      0.00000000      0.00000000      0.00000000</v>
  </separator>
  <separator name="performance" >
   <i type="int" name="NPAR">    12</i>
   <i type="int" name="NSIM">     4</i>
   <i type="int" name="NBLK">    -1</i>
   <i type="logical" name="LPLANE"> T  </i>
   <i type="logical" name="LSCALAPACK"> T  </i>
   <i type="logical" name="LSCAAWARE"> F  </i>
   <i type="logical" name="LSCALU"> F  </i>
   <i type="logical" name="LASYNC"> F  </i>
   <i type="logical" name="LORBITALREAL"> F  </i>
  </separator>
  <separator name="miscellaneous" >
   <i type="int" name="IDIOT">     3</i>
   <i type="int" name="ISPECIAL">     0</i>
   <i type="logical" name="LMUSIC"> F  </i>
   <v name="POMASS">     28.08500000</v>
   <v name="DARWINR">      0.00000000</v>
   <v name="DARWINV">      1.00000000</v>
   <i type="logical" name="LCORR"> T  </i>
  </separator>
  <i type="logical" name="GGA_COMPAT"> T  </i>
  <i type="logical" name="LBERRY"> F  </i>
  <i type="int" name="ICORELEVEL">     0</i>
  <i type="logical" name="LDAU"> F  </i>
  <i type="int" name="I_CONSTRAINED_M">     0</i>
  <separator name="electronic exchange-correlation" >
   <i type="string" name="GGA">--</i>
   <i type="int" name="VOSKOWN">     0</i>
   <i type="logical" name="LHFCALC"> F  </i>
   <i type="string" name="PRECFOCK"></i>
   <i type="logical" name="LSYMGRAD"> F  </i>
   <i type="logical" name="LHFONE"> F  </i>
   <i type="logical" name="LRHFCALC"> F  </i>
   <i type="logical" name="LTHOMAS"> F  </i>
   <i type="logical" name="LMODELHF"> F  </i>
   <i name="ENCUT4O">     -1.00000000</i>
   <i type="int" name="EXXOEP">     0</i>
   <i type="int" name="FOURORBIT">     0</i>
   <i name="AEXX">      0.00000000</i>
   <i name="HFALPHA">      0.00000000</i>
   <i name="MCALPHA">      0.00000000</i>
   <i name="ALDAX">      1.00000000</i>
   <i name="AGGAX">      1.00000000</i>
   <i name="ALDAC">      1.00000000</i>
   <i name="AGGAC">      1.00000000</i>
   <i type="int" name="NKREDX">     1</i>
   <i type="int" name="NKREDY">     1</i>
   <i type="int" name="NKREDZ">     1</i>
   <i type="logical" name="SHIFTRED"> F  </i>
   <i type="logical" name="ODDONLY"> F  </i>
   <i type="logical" name="EVENONLY"> F  </i>
   <i type="int" name="LMAXFOCK">     0</i>
   <i type="int" name="NMAXFOCKAE">     0</i>
   <i type="logical" name="LFOCKAEDFT"> F  </i>
   <i name="HFSCREEN">      0.00000000</i>
   <i name="HFSCREENC">      0.00000000</i>
   <i type="int" name="NBANDSGWLOW">     0</i>
  </separator>
  <separator name="vdW DFT" >
   <i type="logical" name="LUSE_VDW"> F  </i>
   <i name="Zab_VDW">     -0.84910000</i>
   <i name="PARAM1">      0.12340000</i>
   <i name="PARAM2">      1.00000000</i>
   <i name="PARAM3">      0.00000000</i>
  </separator>
  <separator name="model GW" >
   <i type="int" name="MODEL_GW">     0</i>
   <i name="MODEL_EPS0">     12.47812500</i>
   <i name="MODEL_ALPHA">      1.00000000</i>
  </separator>
  <separator name="linear response parameters" >
   <i type="logical" name="LEPSILON"> F  </i>
   <i type="logical" name="LRPA"> F  </i>
   <i type="logical" name="LNABLA"> F  </i>
   <i type="logical" name="LVEL"> F  </i>
   <i type="int" name="KINTER">     0</i>
   <i name="CSHIFT">      0.10000000</i>
   <i name="OMEGAMAX">     -1.00000000</i>
   <i name="DEG_THRESHOLD">      0.00200000</i>
   <i name="RTIME">     -0.10000000</i>
   <i name="WPLASMAI">      0.00000000</i>
   <v name="DFIELD">      0.00000000      0.00000000      0.00000000</v>
   <v name="WPLASMA">      0.00000000      0.00000000      0.00000000      0.00000000      0.00000000      0.00000000      0.00000000      0.00000000      0.00000000</v>
  </separator>
  <separator name="orbital magnetization" >
   <i type="logical" name="NUCIND"> F  </i>
   <v name="MAGPOS">      0.00000000      0.00000000      0.00000000</v>
   <i type="logical" name="LNICSALL"> T  </i>
   <i type="logical" name="ORBITALMAG"> F  </i>
   <i type="logical" name="LMAGBLOCH"> F  </i>
   <i type="logical" name="LCHIMAG"> F  </i>
   <i type="logical" name="LGAUGE"> T  </i>
   <i type="int" name="MAGATOM">     0</i>
   <v name="MAGDIPOL">      0.00000000      0.00000000      0.00000000</v>
   <v name="AVECCONST">      0.00000000      0.00000000      0.00000000</v>
  </separator>
  <separator name="response functions" >
   <i type="logical" name="LADDER"> F  </i>
   <i type="logical" name="LRPAFORCE"> F  </i>
   <i type="logical" name="LFXC"> F  </i>
   <i type="logical" name="LHARTREE"> T  </i>
   <i type="int" name="IBSE">     0</i>
   <v type="int" name="KPOINT">    -1     0     0     0</v>
   <i type="logical" name="LTCTE"> F  </i>
   <i type="logical" name="LTETE"> F  </i>
   <i type="logical" name="LTRIPLET"> F  </i>
   <i type="logical" name="LFXCEPS"> F  </i>
   <i type="logical" name="LFXHEG"> F  </i>
   <i type="int" name="NATURALO">     2</i>
   <i type="logical" name="L2ORDER"> F  </i>
   <i type="logical" name="LMP2LT"> F  </i>
   <i type="logical" name="LUSEW"> F  </i>
   <i name="ENCUTGW">     -2.00000000</i>
   <i name="ENCUTGWSOFT">     -2.00000000</i>
   <i name="ENCUTLF">     -1.00000000</i>
   <i type="int" name="LMAXMP2">    -1</i>
   <i name="SCISSOR">      0.00000000</i>
   <i type="int" name="NOMEGA">     0</i>
   <i type="int" name="NOMEGAR">     0</i>
   <i type="int" name="NBANDSGW">    -1</i>
   <i type="int" name="NBANDSO">    -1</i>
   <i type="int" name="NBANDSV">    -1</i>
   <i type="int" name="NELM">     1</i>
   <i type="int" name="NELMHF">     1</i>
   <i type="int" name="DIM">     3</i>
   <i type="int" name="ANTIRES">     0</i>
   <i name="OMEGAMAX">    -30.00000000</i>
   <i name="OMEGAMIN">    -30.00000000</i>
   <i name="OMEGATL">   -200.00000000</i>
   <i type="int" name="OMEGAGRID">   140</i>
   <i name="CSHIFT">     -0.10000000</i>
   <i type="logical" name="SELFENERGY"> F  </i>
   <i type="logical" name="LSPECTRAL"> F  </i>
   <i type="logical" name="LSPECTRALGW"> F  </i>
   <i type="logical" name="LSINGLES"> F  </i>
   <i type="logical" name="LFERMIGW"> F  </i>
   <i type="logical" name="ODDONLYGW"> F  </i>
   <i type="logical" name="EVENONLYGW"> F  </i>
   <i type="int" name="NKREDLFX">     1</i>
   <i type="int" name="NKREDLFY">     1</i>
   <i type="int" name="NKREDLFZ">     1</i>
   <i type="int" name="MAXMEM">  2800</i>
   <i type="int" name="TELESCOPE">     0</i>
   <i type="int" name="TAUPAR">     1</i>
   <i type="int" name="OMEGAPAR">    -1</i>
   <i name="LAMBDA">      1.00000000</i>
  </separator>
  <separator name="External order field" >
   <i name="OFIELD_KAPPA">      0.00000000</i>
   <v name="OFIELD_K">      0.00000000      0.00000000      0.00000000</v>
   <i name="OFIELD_Q6_NEAR">      0.00000000</i>
   <i name="OFIELD_Q6_FAR">      0.00000000</i>
   <i name="OFIELD_A">      0.00000000</i>
  </separator>
 </parameters>
 <atominfo>
  <atoms>       2 </atoms>
  <types>       1 </types>
  <array name="atoms" >
   <dimension dim="1">ion</dimension>
   <field type="string">element</field>
   <field type="int">atomtype</field>
   <set>
    <rc><c>Si</c><c>   1</c></rc>
    <rc><c>Si</c><c>   1</c></rc>
   </set>
  </array>
  <array name="atomtypes" >
   <dimension dim="1">type</dimension>
   <field type="int">atomspertype</field>
   <field type="string">element</field>
   <field>mass</field>
   <field>valence</field>
   <field type="string">pseudopotential</field>
   <set>
    <rc><c>   2</c><c>Si</c><c>     28.08500000</c><c>      4.00000000</c><c>  PAW_PBE Si 05Jan2001                  </c></rc>
   </set>
  </array>
 </atominfo>
 <structure name="initialpos" >
  <crystal>
   <varray name="basis" >
    <v>       0.00000000       2.75000000       2.75000000 </v>
    <v>       2.75000000       0.00000000       2.75000000 </v>
    <v>       2.75000000       2.75000000       0.00000000 </v>
   </varray>
   <i name="volume">     41.59375000 </i>
   <varray name="rec_basis" >
    <v>      -0.18181818       0.18181818       0.18181818 </v>
    <v>       0.18181818      -0.18181818       0.18181818 </v>
    <v>       0.18181818       0.18181818      -0.18181818 </v>
   </varray>
  </crystal>
  <varray name="positions" >
   <v>       0.87500000       0.87500000       0.87500000 </v>
   <v>       0.12500000       0.12500000       0.12500000 </v>
  </varray>
 </structure>
 <calculation>
  <scstep>
   <time name="dav">    0.18    0.18</time>
   <time name="total">    0.19    0.19</time>
   <energy>
    <i name="alphaZ">      3.23732588 </i>
    <i name="ewald">   -225.65453461 </i>
    <i name="hartreedc">    -11.58535014 </i>
    <i name="XCdc">    -18.75122067 </i>
    <i name="pawpsdc">    176.24759923 </i>
    <i name="pawaedc">   -141.06103558 </i>
    <i name="eentropy">      0.00000000 </i>
    <i name="bandstr">      5.77522438 </i>
    <i name="atom">    206.12155316 </i>
    <i name="e_fr_energy">     -5.67043835 </i>
    <i name="e_wo_entrp">     -5.67043835 </i>
    <i name="e_0_energy">     -5.67043835 </i>
   </energy>
  </scstep>
  <scstep>
   <time name="dav">    0.27    0.27</time>
   <time name="total">    0.27    0.27</time>
   <energy>
    <i name="e_fr_energy">    -10.94683180 </i>
    <i name="e_wo_entrp">    -10.94683180 </i>
    <i name="e_0_energy">    -10.94683180 </i>
   </energy>
  </scstep>
  <scstep>
   <time name="dav">    0.22    0.22</time>
   <time name="total">    0.22    0.22</time>
   <energy>
    <i name="e_fr_energy">    -10.98067351 </i>
    <i name="e_wo_entrp">    -10.98067351 </i>
    <i name="e_0_energy">    -10.98067351 </i>
   </energy>
  </scstep>
  <scstep>
   <time name="dav">    0.32    0.32</time>
   <time name="total">    0.32    0.32</time>
   <energy>
    <i name="e_fr_energy">    -10.98074915 </i>
    <i name="e_wo_entrp">    -10.98074915 </i>
    <i name="e_0_energy">    -10.98074915 </i>
   </energy>
  </scstep>
  <scstep>
   <time name="dav">    0.19    0.19</time>
   <time name="total">    0.20    0.20</time>
   <energy>
    <i name="e_fr_energy">    -10.98074916 </i>
    <i name="e_wo_entrp">    -10.98074916 </i>
    <i name="e_0_energy">    -10.98074916 </i>
   </energy>
  </scstep>
  <scstep>
   <time name="dav">    0.20    0.20</time>
   <time name="total">    0.22    0.22</time>
   <energy>
    <i name="e_fr_energy">    -10.87235578 </i>
    <i name="e_wo_entrp">    -10.87235578 </i>
    <i name="e_0_energy">    -10.87235578 </i>
   </energy>
  </scstep>
  <scstep>
   <time name="dav">    0.22    0.22</time>
   <time name="total">    0.24    0.24</time>
   <energy>
    <i name="e_fr_energy">    -10.82180681 </i>
    <i name="e_wo_entrp">    -10.82180681 </i>
    <i name="e_0_energy">    -10.82180681 </i>
   </energy>
  </scstep>
  <scstep>
   <time name="dav">    0.19    0.19</time>
   <time name="total">    0.21    0.21</time>
   <energy>
    <i name="e_fr_energy">    -10.82284998 </i>
    <i name="e_wo_entrp">    -10.82284998 </i>
    <i name="e_0_energy">    -10.82284998 </i>
   </energy>
  </scstep>
  <scstep>
   <time name="dav">    0.25    0.25</time>
   <time name="total">    0.27    0.27</time>
   <energy>
    <i name="e_fr_energy">    -10.82306574 </i>
    <i name="e_wo_entrp">    -10.82306574 </i>
    <i name="e_0_energy">    -10.82306574 </i>
   </energy>
  </scstep>
  <scstep>
   <time name="dav">    0.25    0.25</time>
   <time name="total">    0.27    0.27</time>
   <energy>
    <i name="e_fr_energy">    -10.82307779 </i>
    <i name="e_wo_entrp">    -10.82307779 </i>
    <i name="e_0_energy">    -10.82307779 </i>
   </energy>
  </scstep>
  <scstep>
   <time name="dav">    0.25    0.25</time>
   <time name="total">    0.27    0.27</time>
   <energy>
    <i name="e_fr_energy">    -10.82307938 </i>
    <i name="e_wo_entrp">    -10.82307938 </i>
    <i name="e_0_energy">    -10.82307938 </i>
   </energy>
  </scstep>
  <scstep>
   <time name="dav">    0.24    0.24</time>
   <time name="total">    0.25    0.25</time>
   <energy>
    <i name="alphaZ">      3.23732588 </i>
    <i name="ewald">   -225.65453461 </i>
    <i name="hartreedc">    -15.36779074 </i>
    <i name="XCdc">    -18.12805100 </i>
    <i name="pawpsdc">    966.06509749 </i>
    <i name="pawaedc">   -931.07699587 </i>
    <i name="eentropy">      0.00000000 </i>
    <i name="bandstr">      3.98031600 </i>
    <i name="atom">    206.12155316 </i>
    <i name="e_fr_energy">    -10.82307969 </i>
    <i name="e_wo_entrp">    -10.82307969 </i>
    <i name="e_0_energy">    -10.82307969 </i>
   </energy>
  </scstep>
  <structure>
   <crystal>
    <varray name="basis" >
     <v>       0.00000000       2.75000000       2.75000000 </v>
     <v>       2.75000000       0.00000000       2.75000000 </v>
     <v>       2.75000000       2.75000000       0.00000000 </v>
    </varray>
    <i name="volume">     41.59375000 </i>
    <varray name="rec_basis" >
     <v>      -0.18181818       0.18181818       0.18181818 </v>
     <v>       0.18181818      -0.18181818       0.18181818 </v>
     <v>       0.18181818       0.18181818      -0.18181818 </v>
    </varray>
   </crystal>
   <varray name="positions" >
    <v>       0.87500000       0.87500000       0.87500000 </v>
    <v>       0.12500000       0.12500000       0.12500000 </v>
   </varray>
  </structure>
  <varray name="forces" >
   <v>      -0.00000000       0.00000000       0.00000000 </v>
   <v>       0.00000000      -0.00000000      -0.00000000 </v>
  </varray>
  <varray name="stress" >
   <v>     -16.43045496       0.00000000       0.00000000 </v>
   <v>       0.00000000     -16.43045496       0.00000000 </v>
   <v>      -0.00000000      -0.00000000     -16.43045496 </v>
  </varray>
  <energy>
   <i name="e_fr_energy">    -10.82307969 </i>
   <i name="e_wo_entrp">    -10.82307969 </i>
   <i name="e_0_energy">      0.00000000 </i>
  </energy>
  <time name="totalsc">    3.13    3.28</time>
 </calculation>
 <calculation>
  <scstep>
   <time name="dav">    0.22    0.22</time>
   <time name="total">    0.25    0.25</time>
   <energy>
    <i name="alphaZ">      3.33934335 </i>
    <i name="ewald">   -228.00040438 </i>
    <i name="hartreedc">    -15.52762271 </i>
    <i name="XCdc">    -17.97805907 </i>
    <i name="pawpsdc">    965.91581984 </i>
    <i name="pawaedc">   -930.92774339 </i>
    <i name="eentropy">      0.00000000 </i>
    <i name="bandstr">      6.22611881 </i>
    <i name="atom">    206.12155316 </i>
    <i name="e_fr_energy">    -10.83099439 </i>
    <i name="e_wo_entrp">    -10.83099439 </i>
    <i name="e_0_energy">    -10.83099439 </i>
   </energy>
  </scstep>
  <scstep>
   <time name="dav">    0.18    0.18</time>
   <time name="total">    0.20    0.20</time>
   <energy>
    <i name="e_fr_energy">    -10.82742383 </i>
    <i name="e_wo_entrp">    -10.82742383 </i>
    <i name="e_0_energy">    -10.82742383 </i>
   </energy>
  </scstep>
  <scstep>
   <time name="dav">    0.20    0.20</time>
   <time name="total">    0.22    0.22</time>
   <energy>
    <i name="e_fr_energy">    -10.82561600 </i>
    <i name="e_wo_entrp">    -10.82561600 </i>
    <i name="e_0_energy">    -10.82561600 </i>
   </energy>
  </scstep>
  <scstep>
   <time name="dav">    0.25    0.25</time>
   <time name="total">    0.27    0.27</time>
   <energy>
    <i name="e_fr_energy">    -10.82561817 </i>
    <i name="e_wo_entrp">    -10.82561817 </i>
    <i name="e_0_energy">    -10.82561817 </i>
   </energy>
  </scstep>
  <scstep>
   <time name="dav">    0.18    0.18</time>
   <time name="total">    0.18    0.18</time>
   <energy>
    <i name="alphaZ">      3.33934335 </i>
    <i name="ewald">   -228.00040438 </i>
    <i name="hartreedc">    -14.99822045 </i>
    <i name="XCdc">    -17.98848390 </i>
    <i name="pawpsdc">   1014.65251108 </i>
    <i name="pawaedc">   -979.68921637 </i>
    <i name="eentropy">      0.00000000 </i>
    <i name="bandstr">      5.73729993 </i>
    <i name="atom">    206.12155316 </i>
    <i name="e_fr_energy">    -10.82561759 </i>
    <i name="e_wo_entrp">    -10.82561759 </i>
    <i name="e_0_energy">    -10.82561759 </i>
   </energy>
  </scstep>
  <structure>
   <crystal>
    <varray name="basis" >
     <v>       0.00000000       2.72170557       2.72170557 </v>
     <v>       2.72170557       0.00000000       2.72170557 </v>
     <v>       2.72170557       2.72170557       0.00000000 </v>
    </varray>
    <i name="volume">     40.32305434 </i>
    <varray name="rec_basis" >
     <v>      -0.18370834       0.18370834       0.18370834 </v>
     <v>       0.18370834      -0.18370834       0.18370834 </v>
     <v>       0.18370834       0.18370834      -0.18370834 </v>
    </varray>
   </crystal>
   <varray name="positions" >
    <v>       0.87500000       0.87500000       0.87500000 </v>
    <v>       0.12500000       0.12500000       0.12500000 </v>
   </varray>
  </structure>
  <varray name="forces" >
   <v>       0.00000000       0.00000000       0.00000000 </v>
   <v>      -0.00000000      -0.00000000      -0.00000000 </v>
  </varray>
  <varray name="stress" >
   <v>      10.76906186       0.00000000      -0.00000000 </v>
   <v>       0.00000000      10.76906186       0.00000000 </v>
   <v>       0.00000000       0.00000000      10.76906186 </v>
  </varray>
  <energy>
   <i name="e_fr_energy">    -10.82561759 </i>
   <i name="e_wo_entrp">    -10.82561759 </i>
   <i name="e_0_energy">      0.00000000 </i>
  </energy>
  <time name="totalsc">    1.25    1.47</time>
 </calculation>
 <calculation>
  <scstep>
   <time name="dav">    0.21    0.21</time>
   <time name="total">    0.23    0.23</time>
   <energy>
    <i name="alphaZ">      3.30013065 </i>
    <i name="ewald">   -227.10444618 </i>
    <i name="hartreedc">    -14.93797935 </i>
    <i name="XCdc">    -18.04522668 </i>
    <i name="pawpsdc">   1011.51613547 </i>
    <i name="pawaedc">   -976.55450317 </i>
    <i name="eentropy">      0.00000000 </i>
    <i name="bandstr">      4.87632986 </i>
    <i name="atom">    206.12155316 </i>
    <i name="e_fr_energy">    -10.82800625 </i>
    <i name="e_wo_entrp">    -10.82800625 </i>
    <i name="e_0_energy">    -10.82800625 </i>
   </energy>
  </scstep>
  <scstep>
   <time name="dav">    0.17    0.17</time>
   <time name="total">    0.19    0.19</time>
   <energy>
    <i name="e_fr_energy">    -10.82748499 </i>
    <i name="e_wo_entrp">    -10.82748499 </i>
    <i name="e_0_energy">    -10.82748499 </i>
   </energy>
  </scstep>
  <scstep>
   <time name="dav">    0.19    0.19</time>
   <time name="total">    0.21    0.21</time>
   <energy>
    <i name="e_fr_energy">    -10.82722455 </i>
    <i name="e_wo_entrp">    -10.82722455 </i>
    <i name="e_0_energy">    -10.82722455 </i>
   </energy>
  </scstep>
  <scstep>
   <time name="dav">    0.23    0.23</time>
   <time name="total">    0.24    0.24</time>
   <energy>
    <i name="alphaZ">      3.30013065 </i>
    <i name="ewald">   -227.10444618 </i>
    <i name="hartreedc">    -15.13682163 </i>
    <i name="XCdc">    -18.04000777 </i>
    <i name="pawpsdc">    990.28318820 </i>
    <i name="pawaedc">   -955.31353868 </i>
    <i name="eentropy">      0.00000000 </i>
    <i name="bandstr">      5.06271777 </i>
    <i name="atom">    206.12155316 </i>
    <i name="e_fr_energy">    -10.82722448 </i>
    <i name="e_wo_entrp">    -10.82722448 </i>
    <i name="e_0_energy">    -10.82722448 </i>
   </energy>
  </scstep>
  <structure>
   <crystal>
    <varray name="basis" >
     <v>       0.00000000       2.73244307       2.73244307 </v>
     <v>       2.73244307       0.00000000       2.73244307 </v>
     <v>       2.73244307       2.73244307       0.00000000 </v>
    </varray>
    <i name="volume">     40.80217954 </i>
    <varray name="rec_basis" >
     <v>      -0.18298643       0.18298643       0.18298643 </v>
     <v>       0.18298643      -0.18298643       0.18298643 </v>
     <v>       0.18298643       0.18298643      -0.18298643 </v>
    </varray>
   </crystal>
   <varray name="positions" >
    <v>       0.87500000       0.87500000       0.87500000 </v>
    <v>       0.12500000       0.12500000       0.12500000 </v>
   </varray>
  </structure>
  <varray name="forces" >
   <v>       0.00000000      -0.00000000      -0.00000000 </v>
   <v>      -0.00000000       0.00000000       0.00000000 </v>
  </varray>
  <varray name="stress" >
   <v>       0.07613138       0.00000000      -0.00000000 </v>
   <v>      -0.00000000       0.07613138      -0.00000000 </v>
   <v>       0.00000000       0.00000000       0.07613138 </v>
  </varray>
  <energy>
   <i name="e_fr_energy">    -10.82722448 </i>
   <i name="e_wo_entrp">    -10.82722448 </i>
   <i name="e_0_energy">      0.00000000 </i>
  </energy>
  <time name="totalsc">    0.99    1.01</time>
 </calculation>
 <calculation>
  <scstep>
   <time name="dav">    0.18    0.18</time>
   <time name="total">    0.20    0.21</time>
   <energy>
    <i name="alphaZ">      3.29984283 </i>
    <i name="ewald">   -227.09784365 </i>
    <i name="hartreedc">    -15.13665825 </i>
    <i name="XCdc">    -18.04112480 </i>
    <i name="pawpsdc">    998.18002334 </i>
    <i name="pawaedc">   -963.20843782 </i>
    <i name="eentropy">      0.00000000 </i>
    <i name="bandstr">      5.05542371 </i>
    <i name="atom">    206.12155316 </i>
    <i name="e_fr_energy">    -10.82722150 </i>
    <i name="e_wo_entrp">    -10.82722150 </i>
    <i name="e_0_energy">    -10.82722150 </i>
   </energy>
  </scstep>
  <scstep>
   <time name="dav">    0.17    0.17</time>
   <time name="total">    0.18    0.18</time>
   <energy>
    <i name="alphaZ">      3.29984283 </i>
    <i name="ewald">   -227.09784365 </i>
    <i name="hartreedc">    -15.13736265 </i>
    <i name="XCdc">    -18.04126835 </i>
    <i name="pawpsdc">    997.67816104 </i>
    <i name="pawaedc">   -962.70637599 </i>
    <i name="eentropy">      0.00000000 </i>
    <i name="bandstr">      5.05607252 </i>
    <i name="atom">    206.12155316 </i>
    <i name="e_fr_energy">    -10.82722111 </i>
    <i name="e_wo_entrp">    -10.82722111 </i>
    <i name="e_0_energy">    -10.82722111 </i>
   </energy>
  </scstep>
  <structure>
   <crystal>
    <varray name="basis" >
     <v>       0.00000000       2.73252251       2.73252251 </v>
     <v>       2.73252251       0.00000000       2.73252251 </v>
     <v>       2.73252251       2.73252251       0.00000000 </v>
    </varray>
    <i name="volume">     40.80573843 </i>
    <varray name="rec_basis" >
     <v>      -0.18298111       0.18298111       0.18298111 </v>
     <v>       0.18298111      -0.18298111       0.18298111 </v>
     <v>       0.18298111       0.18298111      -0.18298111 </v>
    </varray>
   </crystal>
   <varray name="positions" >
    <v>       0.87500000       0.87500000       0.87500000 </v>
    <v>       0.12500000       0.12500000       0.12500000 </v>
   </varray>
  </structure>
  <varray name="forces" >
   <v>      -0.00000000      -0.00000000      -0.00000000 </v>
   <v>       0.00000000       0.00000000       0.00000000 </v>
  </varray>
  <varray name="stress" >
   <v>       0.01469937      -0.00000000      -0.00000000 </v>
   <v>      -0.00000000       0.01469937       0.00000000 </v>
   <v>      -0.00000000      -0.00000000       0.01469937 </v>
  </varray>
  <energy>
   <i name="e_fr_energy">    -10.82722111 </i>
   <i name="e_wo_entrp">    -10.82722111 </i>
   <i name="e_0_energy">      0.00000000 </i>
  </energy>
  <time name="totalsc">    0.51    0.52</time>
 </calculation>
 <calculation>
  <scstep>
   <time name="dav">    0.21    0.21</time>
   <time name="total">    0.23    0.23</time>
   <energy>
    <i name="alphaZ">      3.29977401 </i>
    <i name="ewald">   -227.09626508 </i>
    <i name="hartreedc">    -15.13830983 </i>
    <i name="XCdc">    -18.04158751 </i>
    <i name="pawpsdc">    997.00378807 </i>
    <i name="pawaedc">   -962.03169485 </i>
    <i name="eentropy">      0.00000000 </i>
    <i name="bandstr">      5.05552135 </i>
    <i name="atom">    206.12155316 </i>
    <i name="e_fr_energy">    -10.82722069 </i>
    <i name="e_wo_entrp">    -10.82722069 </i>
    <i name="e_0_energy">    -10.82722069 </i>
   </energy>
  </scstep>
  <scstep>
   <time name="dav">    0.10    0.10</time>
   <time name="total">    0.10    0.10</time>
   <energy>
    <i name="alphaZ">      3.29977401 </i>
    <i name="ewald">   -227.09626508 </i>
    <i name="hartreedc">    -15.13849102 </i>
    <i name="XCdc">    -18.04158731 </i>
    <i name="pawpsdc">    997.03380959 </i>
    <i name="pawaedc">   -962.06170078 </i>
    <i name="eentropy">      0.00000000 </i>
    <i name="bandstr">      5.05568677 </i>
    <i name="atom">    206.12155316 </i>
    <i name="e_fr_energy">    -10.82722066 </i>
    <i name="e_wo_entrp">    -10.82722066 </i>
    <i name="e_0_energy">    -10.82722066 </i>
   </energy>
  </scstep>
  <structure>
   <crystal>
    <varray name="basis" >
     <v>       0.00000000       2.73254151       2.73254151 </v>
     <v>       2.73254151       0.00000000       2.73254151 </v>
     <v>       2.73254151       2.73254151       0.00000000 </v>
    </varray>
    <i name="volume">     40.80658937 </i>
    <varray name="rec_basis" >
     <v>      -0.18297984       0.18297984       0.18297984 </v>
     <v>       0.18297984      -0.18297984       0.18297984 </v>
     <v>       0.18297984       0.18297984      -0.18297984 </v>
    </varray>
   </crystal>
   <varray name="positions" >
    <v>       0.87500000       0.87500000       0.87500000 </v>
    <v>       0.12500000       0.12500000       0.12500000 </v>
   </varray>
  </structure>
  <varray name="forces" >
   <v>      -0.00000000       0.00000000       0.00000000 </v>
   <v>       0.00000000      -0.00000000      -0.00000000 </v>
  </varray>
  <varray name="stress" >
   <v>      -0.04675068      -0.00000000       0.00000000 </v>
   <v>      -0.00000000      -0.04675068       0.00000000 </v>
   <v>      -0.00000000      -0.00000000      -0.04675068 </v>
  </varray>
  <energy>
   <i name="e_fr_energy">    -10.82722066 </i>
   <i name="e_wo_entrp">    -10.82722066 </i>
   <i name="e_0_energy">      0.00000000 </i>
  </energy>
  <time name="totalsc">    0.47    0.50</time>
 </calculation>
 <calculation>
  <scstep>
   <time name="dav">    0.09    0.09</time>
   <time name="total">    0.12    0.12</time>
   <energy>
    <i name="alphaZ">      3.29982637 </i>
    <i name="ewald">   -227.09746605 </i>
    <i name="hartreedc">    -15.13887675 </i>
    <i name="XCdc">    -18.04150969 </i>
    <i name="pawpsdc">    997.09483796 </i>
    <i name="pawaedc">   -962.12270028 </i>
    <i name="eentropy">      0.00000000 </i>
    <i name="bandstr">      5.05711464 </i>
    <i name="atom">    206.12155316 </i>
    <i name="e_fr_energy">    -10.82722065 </i>
    <i name="e_wo_entrp">    -10.82722065 </i>
    <i name="e_0_energy">    -10.82722065 </i>
   </energy>
  </scstep>
  <scstep>
   <time name="dav">    0.09    0.09</time>
   <time name="total">    0.10    0.10</time>
   <energy>
    <i name="alphaZ">      3.29982637 </i>
    <i name="ewald">   -227.09746605 </i>
    <i name="hartreedc">    -15.13874472 </i>
    <i name="XCdc">    -18.04151497 </i>
    <i name="pawpsdc">    997.10603444 </i>
    <i name="pawaedc">   -962.13389991 </i>
    <i name="eentropy">      0.00000000 </i>
    <i name="bandstr">      5.05699104 </i>
    <i name="atom">    206.12155316 </i>
    <i name="e_fr_energy">    -10.82722066 </i>
    <i name="e_wo_entrp">    -10.82722066 </i>
    <i name="e_0_energy">    -10.82722066 </i>
   </energy>
  </scstep>
  <structure>
   <crystal>
    <varray name="basis" >
     <v>       0.00000000       2.73252706       2.73252706 </v>
     <v>       2.73252706       0.00000000       2.73252706 </v>
     <v>       2.73252706       2.73252706       0.00000000 </v>
    </varray>
    <i name="volume">     40.80594198 </i>
    <varray name="rec_basis" >
     <v>      -0.18298080       0.18298080       0.18298080 </v>
     <v>       0.18298080      -0.18298080       0.18298080 </v>
     <v>       0.18298080       0.18298080      -0.18298080 </v>
    </varray>
   </crystal>
   <varray name="positions" >
    <v>       0.87500000       0.87500000       0.87500000 </v>
    <v>       0.12500000       0.12500000       0.12500000 </v>
   </varray>
  </structure>
  <varray name="forces" >
   <v>       0.00000000      -0.00000000      -0.00000000 </v>
   <v>      -0.00000000       0.00000000       0.00000000 </v>
  </varray>
  <varray name="stress" >
   <v>      -0.04645905       0.00000000       0.00000000 </v>
   <v>       0.00000000      -0.04645905      -0.00000000 </v>
   <v>       0.00000000       0.00000000      -0.04645905 </v>
  </varray>
  <energy>
   <i name="e_fr_energy">    -10.82722066 </i>
   <i name="e_wo_entrp">    -10.82722066 </i>
   <i name="e_0_energy">      0.00000000 </i>
  </energy>
  <time name="totalsc">    0.35    0.35</time>
 </calculation>
 <calculation>
  <scstep>
   <time name="dav">    0.09    0.09</time>
   <time name="total">    0.11    0.11</time>
   <energy>
    <i name="alphaZ">      3.29983887 </i>
    <i name="ewald">   -227.09775290 </i>
    <i name="hartreedc">    -15.13862305 </i>
    <i name="XCdc">    -18.04149832 </i>
    <i name="pawpsdc">    997.13508407 </i>
    <i name="pawaedc">   -962.16295493 </i>
    <i name="eentropy">      0.00000000 </i>
    <i name="bandstr">      5.05713244 </i>
    <i name="atom">    206.12155316 </i>
    <i name="e_fr_energy">    -10.82722067 </i>
    <i name="e_wo_entrp">    -10.82722067 </i>
    <i name="e_0_energy">    -10.82722067 </i>
   </energy>
  </scstep>
  <scstep>
   <time name="dav">    0.09    0.09</time>
   <time name="total">    0.10    0.10</time>
   <energy>
    <i name="alphaZ">      3.29983887 </i>
    <i name="ewald">   -227.09775290 </i>
    <i name="hartreedc">    -15.13858960 </i>
    <i name="XCdc">    -18.04149826 </i>
    <i name="pawpsdc">    997.13953588 </i>
    <i name="pawaedc">   -962.16740889 </i>
    <i name="eentropy">      0.00000000 </i>
    <i name="bandstr">      5.05710107 </i>
    <i name="atom">    206.12155316 </i>
    <i name="e_fr_energy">    -10.82722067 </i>
    <i name="e_wo_entrp">    -10.82722067 </i>
    <i name="e_0_energy">    -10.82722067 </i>
   </energy>
  </scstep>
  <structure>
   <crystal>
    <varray name="basis" >
     <v>       0.00000000       2.73252360       2.73252360 </v>
     <v>       2.73252360       0.00000000       2.73252360 </v>
     <v>       2.73252360       2.73252360       0.00000000 </v>
    </varray>
    <i name="volume">     40.80578735 </i>
    <varray name="rec_basis" >
     <v>      -0.18298104       0.18298104       0.18298104 </v>
     <v>       0.18298104      -0.18298104       0.18298104 </v>
     <v>       0.18298104       0.18298104      -0.18298104 </v>
    </varray>
   </crystal>
   <varray name="positions" >
    <v>       0.87500000       0.87500000       0.87500000 </v>
    <v>       0.12500000       0.12500000       0.12500000 </v>
   </varray>
  </structure>
  <varray name="forces" >
   <v>      -0.00000000       0.00000000       0.00000000 </v>
   <v>       0.00000000      -0.00000000      -0.00000000 </v>
  </varray>
  <varray name="stress" >
   <v>      -0.03935586      -0.00000000      -0.00000000 </v>
   <v>      -0.00000000      -0.03935586      -0.00000000 </v>
   <v>       0.00000000       0.00000000      -0.03935586 </v>
  </varray>
  <energy>
   <i name="e_fr_energy">    -10.82722067 </i>
   <i name="e_wo_entrp">    -10.82722067 </i>
   <i name="e_0_energy">      0.00000000 </i>
  </energy>
  <time name="totalsc">    0.34    0.36</time>
 </calculation>
 <calculation>
  <scstep>
   <time name="dav">    0.09    0.09</time>
   <time name="total">    0.11    0.11</time>
   <energy>
    <i name="alphaZ">      3.29984175 </i>
    <i name="ewald">   -227.09781897 </i>
    <i name="hartreedc">    -15.13855568 </i>
    <i name="XCdc">    -18.04149291 </i>
    <i name="pawpsdc">    997.14672579 </i>
    <i name="pawaedc">   -962.17460232 </i>
    <i name="eentropy">      0.00000000 </i>
    <i name="bandstr">      5.05712852 </i>
    <i name="atom">    206.12155316 </i>
    <i name="e_fr_energy">    -10.82722067 </i>
    <i name="e_wo_entrp">    -10.82722067 </i>
    <i name="e_0_energy">    -10.82722067 </i>
   </energy>
  </scstep>
  <scstep>
   <time name="dav">    0.09    0.09</time>
   <time name="total">    0.10    0.10</time>
   <energy>
    <i name="alphaZ">      3.29984175 </i>
    <i name="ewald">   -227.09781897 </i>
    <i name="hartreedc">    -15.13854873 </i>
    <i name="XCdc">    -18.04149280 </i>
    <i name="pawpsdc">    997.14688123 </i>
    <i name="pawaedc">   -962.17475841 </i>
    <i name="eentropy">      0.00000000 </i>
    <i name="bandstr">      5.05712209 </i>
    <i name="atom">    206.12155316 </i>
    <i name="e_fr_energy">    -10.82722067 </i>
    <i name="e_wo_entrp">    -10.82722067 </i>
    <i name="e_0_energy">    -10.82722067 </i>
   </energy>
  </scstep>
  <structure>
   <crystal>
    <varray name="basis" >
     <v>       0.00000000       2.73252281       2.73252281 </v>
     <v>       2.73252281       0.00000000       2.73252281 </v>
     <v>       2.73252281       2.73252281       0.00000000 </v>
    </varray>
    <i name="volume">     40.80575173 </i>
    <varray name="rec_basis" >
     <v>      -0.18298109       0.18298109       0.18298109 </v>
     <v>       0.18298109      -0.18298109       0.18298109 </v>
     <v>       0.18298109       0.18298109      -0.18298109 </v>
    </varray>
   </crystal>
   <varray name="positions" >
    <v>       0.87500000       0.87500000       0.87500000 </v>
    <v>       0.12500000       0.12500000       0.12500000 </v>
   </varray>
  </structure>
  <varray name="forces" >
   <v>      -0.00000000       0.00000000       0.00000000 </v>
   <v>       0.00000000      -0.00000000      -0.00000000 </v>
  </varray>
  <varray name="stress" >
   <v>      -0.03735449       0.00000000      -0.00000000 </v>
   <v>      -0.00000000      -0.03735449       0.00000000 </v>
   <v>      -0.00000000      -0.00000000      -0.03735449 </v>
  </varray>
  <energy>
   <i name="e_fr_energy">    -10.82722067 </i>
   <i name="e_wo_entrp">    -10.82722067 </i>
   <i name="e_0_energy">      0.00000000 </i>
  </energy>
  <time name="totalsc">    0.35    0.37</time>
 </calculation>
 <calculation>
  <scstep>
   <time name="dav">    0.09    0.09</time>
   <time name="total">    0.11    0.11</time>
   <energy>
    <i name="alphaZ">      3.29984252 </i>
    <i name="ewald">   -227.09783668 </i>
    <i name="hartreedc">    -15.13854215 </i>
    <i name="XCdc">    -18.04149133 </i>
    <i name="pawpsdc">    997.14695195 </i>
    <i name="pawaedc">   -962.17483012 </i>
    <i name="eentropy">      0.00000000 </i>
    <i name="bandstr">      5.05713198 </i>
    <i name="atom">    206.12155316 </i>
    <i name="e_fr_energy">    -10.82722068 </i>
    <i name="e_wo_entrp">    -10.82722068 </i>
    <i name="e_0_energy">    -10.82722068 </i>
   </energy>
  </scstep>
  <scstep>
   <time name="dav">    0.09    0.09</time>
   <time name="total">    0.10    0.10</time>
   <energy>
    <i name="alphaZ">      3.29984252 </i>
    <i name="ewald">   -227.09783668 </i>
    <i name="hartreedc">    -15.13854008 </i>
    <i name="XCdc">    -18.04149133 </i>
    <i name="pawpsdc">    997.14684321 </i>
    <i name="pawaedc">   -962.17472155 </i>
    <i name="eentropy">      0.00000000 </i>
    <i name="bandstr">      5.05713008 </i>
    <i name="atom">    206.12155316 </i>
    <i name="e_fr_energy">    -10.82722068 </i>
    <i name="e_wo_entrp">    -10.82722068 </i>
    <i name="e_0_energy">    -10.82722068 </i>
   </energy>
  </scstep>
  <structure>
   <crystal>
    <varray name="basis" >
     <v>       0.00000000       2.73252260       2.73252260 </v>
     <v>       2.73252260       0.00000000       2.73252260 </v>
     <v>       2.73252260       2.73252260       0.00000000 </v>
    </varray>
    <i name="volume">     40.80574219 </i>
    <varray name="rec_basis" >
     <v>      -0.18298110       0.18298110       0.18298110 </v>
     <v>       0.18298110      -0.18298110       0.18298110 </v>
     <v>       0.18298110       0.18298110      -0.18298110 </v>
    </varray>
   </crystal>
   <varray name="positions" >
    <v>       0.87500000       0.87500000       0.87500000 </v>
    <v>       0.12500000       0.12500000       0.12500000 </v>
   </varray>
  </structure>
  <varray name="forces" >
   <v>      -0.00000000       0.00000000      -0.00000000 </v>
   <v>       0.00000000      -0.00000000       0.00000000 </v>
  </varray>
  <varray name="stress" >
   <v>      -0.03691726       0.00000000       0.00000000 </v>
   <v>      -0.00000000      -0.03691726      -0.00000000 </v>
   <v>       0.00000000      -0.00000000      -0.03691726 </v>
  </varray>
  <energy>
   <i name="e_fr_energy">    -10.82722068 </i>
   <i name="e_wo_entrp">    -10.82722068 </i>
   <i name="e_0_energy">      0.00000000 </i>
  </energy>
  <time name="totalsc">    0.33    0.34</time>
 </calculation>
 <calculation>
  <scstep>
   <time name="dav">    0.09    0.09</time>
   <time name="total">    0.11    0.11</time>
   <energy>
    <i name="alphaZ">      3.29984274 </i>
    <i name="ewald">   -227.09784167 </i>
    <i name="hartreedc">    -15.13853808 </i>
    <i name="XCdc">    -18.04149097 </i>
    <i name="pawpsdc">    997.14665425 </i>
    <i name="pawaedc">   -962.17453284 </i>
    <i name="eentropy">      0.00000000 </i>
    <i name="bandstr">      5.05713273 </i>
    <i name="atom">    206.12155316 </i>
    <i name="e_fr_energy">    -10.82722068 </i>
    <i name="e_wo_entrp">    -10.82722068 </i>
    <i name="e_0_energy">    -10.82722068 </i>
   </energy>
  </scstep>
  <scstep>
   <time name="dav">    0.09    0.09</time>
   <time name="total">    0.10    0.10</time>
   <energy>
    <i name="alphaZ">      3.29984274 </i>
    <i name="ewald">   -227.09784167 </i>
    <i name="hartreedc">    -15.13853748 </i>
    <i name="XCdc">    -18.04149098 </i>
    <i name="pawpsdc">    997.14661267 </i>
    <i name="pawaedc">   -962.17449129 </i>
    <i name="eentropy">      0.00000000 </i>
    <i name="bandstr">      5.05713218 </i>
    <i name="atom">    206.12155316 </i>
    <i name="e_fr_energy">    -10.82722068 </i>
    <i name="e_wo_entrp">    -10.82722068 </i>
    <i name="e_0_energy">    -10.82722068 </i>
   </energy>
  </scstep>
  <structure>
   <crystal>
    <varray name="basis" >
     <v>       0.00000000       2.73252254       2.73252254 </v>
     <v>       2.73252254       0.00000000       2.73252254 </v>
     <v>       2.73252254       2.73252254       0.00000000 </v>
    </varray>
    <i name="volume">     40.80573950 </i>
    <varray name="rec_basis" >
     <v>      -0.18298111       0.18298111       0.18298111 </v>
     <v>       0.18298111      -0.18298111       0.18298111 </v>
     <v>       0.18298111       0.18298111      -0.18298111 </v>
    </varray>
   </crystal>
   <varray name="positions" >
    <v>       0.87500000       0.87500000       0.87500000 </v>
    <v>       0.12500000       0.12500000       0.12500000 </v>
   </varray>
  </structure>
  <varray name="forces" >
   <v>      -0.00000000      -0.00000000      -0.00000000 </v>
   <v>       0.00000000       0.00000000       0.00000000 </v>
  </varray>
  <varray name="stress" >
   <v>      -0.03679626      -0.00000000      -0.00000000 </v>
   <v>       0.00000000      -0.03679626       0.00000000 </v>
   <v>      -0.00000000       0.00000000      -0.03679626 </v>
  </varray>
  <energy>
   <i name="e_fr_energy">    -10.82722068 </i>
   <i name="e_wo_entrp">    -10.82722068 </i>
   <i name="e_0_energy">      0.00000000 </i>
  </energy>
  <time name="totalsc">    0.35    0.43</time>
 </calculation>
 <calculation>
  <scstep>
   <time name="dav">    0.09    0.09</time>
   <time name="total">    0.12    0.12</time>
   <energy>
    <i name="alphaZ">      3.29984280 </i>
    <i name="ewald">   -227.09784309 </i>
    <i name="hartreedc">    -15.13853690 </i>
    <i name="XCdc">    -18.04149088 </i>
    <i name="pawpsdc">    997.14654179 </i>
    <i name="pawaedc">   -962.17442048 </i>
    <i name="eentropy">      0.00000000 </i>
    <i name="bandstr">      5.05713293 </i>
    <i name="atom">    206.12155316 </i>
    <i name="e_fr_energy">    -10.82722068 </i>
    <i name="e_wo_entrp">    -10.82722068 </i>
    <i name="e_0_energy">    -10.82722068 </i>
   </energy>
  </scstep>
  <scstep>
   <time name="dav">    0.09    0.09</time>
   <time name="total">    0.10    0.10</time>
   <energy>
    <i name="alphaZ">      3.29984280 </i>
    <i name="ewald">   -227.09784309 </i>
    <i name="hartreedc">    -15.13853672 </i>
    <i name="XCdc">    -18.04149088 </i>
    <i name="pawpsdc">    997.14652923 </i>
    <i name="pawaedc">   -962.17440793 </i>
    <i name="eentropy">      0.00000000 </i>
    <i name="bandstr">      5.05713277 </i>
    <i name="atom">    206.12155316 </i>
    <i name="e_fr_energy">    -10.82722068 </i>
    <i name="e_wo_entrp">    -10.82722068 </i>
    <i name="e_0_energy">    -10.82722068 </i>
   </energy>
  </scstep>
  <structure>
   <crystal>
    <varray name="basis" >
     <v>       0.00000000       2.73252252       2.73252252 </v>
     <v>       2.73252252       0.00000000       2.73252252 </v>
     <v>       2.73252252       2.73252252       0.00000000 </v>
    </varray>
    <i name="volume">     40.80573874 </i>
    <varray name="rec_basis" >
     <v>      -0.18298111       0.18298111       0.18298111 </v>
     <v>       0.18298111      -0.18298111       0.18298111 </v>
     <v>       0.18298111       0.18298111      -0.18298111 </v>
    </varray>
   </crystal>
   <varray name="positions" >
    <v>       0.87500000       0.87500000       0.87500000 </v>
    <v>       0.12500000       0.12500000       0.12500000 </v>
   </varray>
  </structure>
  <varray name="forces" >
   <v>       0.00000000      -0.00000000      -0.00000000 </v>
   <v>      -0.00000000       0.00000000       0.00000000 </v>
  </varray>
  <varray name="stress" >
   <v>      -0.03676238      -0.00000000       0.00000000 </v>
   <v>      -0.00000000      -0.03676238      -0.00000000 </v>
   <v>      -0.00000000       0.00000000      -0.03676238 </v>
  </varray>
  <energy>
   <i name="e_fr_energy">    -10.82722068 </i>
   <i name="e_wo_entrp">    -10.82722068 </i>
   <i name="e_0_energy">      0.00000000 </i>
  </energy>
  <time name="totalsc">    0.44    0.56</time>
 </calculation>
 <calculation>
  <scstep>
   <time name="dav">    0.09    0.09</time>
   <time name="total">    0.12    0.12</time>
   <energy>
    <i name="alphaZ">      3.29984282 </i>
    <i name="ewald">   -227.09784349 </i>
    <i name="hartreedc">    -15.13853655 </i>
    <i name="XCdc">    -18.04149086 </i>
    <i name="pawpsdc">    997.14650759 </i>
    <i name="pawaedc">   -962.17438631 </i>
    <i name="eentropy">      0.00000000 </i>
    <i name="bandstr">      5.05713297 </i>
    <i name="atom">    206.12155316 </i>
    <i name="e_fr_energy">    -10.82722068 </i>
    <i name="e_wo_entrp">    -10.82722068 </i>
    <i name="e_0_energy">    -10.82722068 </i>
   </energy>
  </scstep>
  <scstep>
   <time name="dav">    0.09    0.09</time>
   <time name="total">    0.09    0.09</time>
   <energy>
    <i name="alphaZ">      3.29984282 </i>
    <i name="ewald">   -227.09784349 </i>
    <i name="hartreedc">    -15.13853650 </i>
    <i name="XCdc">    -18.04149086 </i>
    <i name="pawpsdc">    997.14650394 </i>
    <i name="pawaedc">   -962.17438266 </i>
    <i name="eentropy">      0.00000000 </i>
    <i name="bandstr">      5.05713292 </i>
    <i name="atom">    206.12155316 </i>
    <i name="e_fr_energy">    -10.82722068 </i>
    <i name="e_wo_entrp">    -10.82722068 </i>
    <i name="e_0_energy">    -10.82722068 </i>
   </energy>
  </scstep>
  <structure>
   <crystal>
    <varray name="basis" >
     <v>       0.00000000       2.73252251       2.73252251 </v>
     <v>       2.73252251       0.00000000       2.73252251 </v>
     <v>       2.73252251       2.73252251       0.00000000 </v>
    </varray>
    <i name="volume">     40.80573852 </i>
    <varray name="rec_basis" >
     <v>      -0.18298111       0.18298111       0.18298111 </v>
     <v>       0.18298111      -0.18298111       0.18298111 </v>
     <v>       0.18298111       0.18298111      -0.18298111 </v>
    </varray>
   </crystal>
   <varray name="positions" >
    <v>       0.87500000       0.87500000       0.87500000 </v>
    <v>       0.12500000       0.12500000       0.12500000 </v>
   </varray>
  </structure>
  <varray name="forces" >
   <v>       0.00000000       0.00000000       0.00000000 </v>
   <v>      -0.00000000      -0.00000000      -0.00000000 </v>
  </varray>
  <varray name="stress" >
   <v>      -0.03675266      -0.00000000      -0.00000000 </v>
   <v>      -0.00000000      -0.03675266      -0.00000000 </v>
   <v>      -0.00000000       0.00000000      -0.03675266 </v>
  </varray>
  <energy>
   <i name="e_fr_energy">    -10.82722068 </i>
   <i name="e_wo_entrp">    -10.82722068 </i>
   <i name="e_0_energy">      0.00000000 </i>
  </energy>
  <time name="totalsc">    0.34    0.34</time>
 </calculation>
 <calculation>
  <scstep>
   <time name="dav">    0.09    0.09</time>
   <time name="total">    0.11    0.11</time>
   <energy>
    <i name="alphaZ">      3.29984282 </i>
    <i name="ewald">   -227.09784361 </i>
    <i name="hartreedc">    -15.13853644 </i>
    <i name="XCdc">    -18.04149085 </i>
    <i name="pawpsdc">    997.14649760 </i>
    <i name="pawaedc">   -962.17437633 </i>
    <i name="eentropy">      0.00000000 </i>
    <i name="bandstr">      5.05713298 </i>
    <i name="atom">    206.12155316 </i>
    <i name="e_fr_energy">    -10.82722068 </i>
    <i name="e_wo_entrp">    -10.82722068 </i>
    <i name="e_0_energy">    -10.82722068 </i>
   </energy>
  </scstep>
  <scstep>
   <time name="dav">    0.09    0.09</time>
   <time name="total">    0.09    0.09</time>
   <energy>
    <i name="alphaZ">      3.29984282 </i>
    <i name="ewald">   -227.09784361 </i>
    <i name="hartreedc">    -15.13853643 </i>
    <i name="XCdc">    -18.04149085 </i>
    <i name="pawpsdc">    997.14649656 </i>
    <i name="pawaedc">   -962.17437530 </i>
    <i name="eentropy">      0.00000000 </i>
    <i name="bandstr">      5.05713297 </i>
    <i name="atom">    206.12155316 </i>
    <i name="e_fr_energy">    -10.82722068 </i>
    <i name="e_wo_entrp">    -10.82722068 </i>
    <i name="e_0_energy">    -10.82722068 </i>
   </energy>
  </scstep>
  <structure>
   <crystal>
    <varray name="basis" >
     <v>       0.00000000       2.73252251       2.73252251 </v>
     <v>       2.73252251       0.00000000       2.73252251 </v>
     <v>       2.73252251       2.73252251       0.00000000 </v>
    </varray>
    <i name="volume">     40.80573846 </i>
    <varray name="rec_basis" >
     <v>      -0.18298111       0.18298111       0.18298111 </v>
     <v>       0.18298111      -0.18298111       0.18298111 </v>
     <v>       0.18298111       0.18298111      -0.18298111 </v>
    </varray>
   </crystal>
   <varray name="positions" >
    <v>       0.87500000       0.87500000       0.87500000 </v>
    <v>       0.12500000       0.12500000       0.12500000 </v>
   </varray>
  </structure>
  <varray name="forces" >
   <v>      -0.00000000      -0.00000000      -0.00000000 </v>
   <v>       0.00000000       0.00000000       0.00000000 </v>
  </varray>
  <varray name="stress" >
   <v>      -0.03674986      -0.00000000       0.00000000 </v>
   <v>      -0.00000000      -0.03674986       0.00000000 </v>
   <v>      -0.00000000      -0.00000000      -0.03674986 </v>
  </varray>
  <energy>
   <i name="e_fr_energy">    -10.82722068 </i>
   <i name="e_wo_entrp">    -10.82722068 </i>
   <i name="e_0_energy">      0.00000000 </i>
  </energy>
  <time name="totalsc">    0.33    0.34</time>
 </calculation>
 <calculation>
  <scstep>
   <time name="dav">    0.21    0.21</time>
   <time name="total">    0.23    0.23</time>
   <energy>
    <i name="alphaZ">      3.23732588 </i>
    <i name="ewald">   -225.65453461 </i>
    <i name="hartreedc">    -15.04232420 </i>
    <i name="XCdc">    -18.13456900 </i>
    <i name="pawpsdc">    997.14649479 </i>
    <i name="pawaedc">   -962.17437352 </i>
    <i name="eentropy">      0.00000000 </i>
    <i name="bandstr">      3.67528509 </i>
    <i name="atom">    206.12155316 </i>
    <i name="e_fr_energy">    -10.82514242 </i>
    <i name="e_wo_entrp">    -10.82514242 </i>
    <i name="e_0_energy">    -10.82514242 </i>
   </energy>
  </scstep>
  <scstep>
   <time name="dav">    0.18    0.18</time>
   <time name="total">    0.20    0.20</time>
   <energy>
    <i name="e_fr_energy">    -10.82377331 </i>
    <i name="e_wo_entrp">    -10.82377331 </i>
    <i name="e_0_energy">    -10.82377331 </i>
   </energy>
  </scstep>
  <scstep>
   <time name="dav">    0.19    0.19</time>
   <time name="total">    0.21    0.21</time>
   <energy>
    <i name="e_fr_energy">    -10.82308597 </i>
    <i name="e_wo_entrp">    -10.82308597 </i>
    <i name="e_0_energy">    -10.82308597 </i>
   </energy>
  </scstep>
  <scstep>
   <time name="dav">    0.23    0.23</time>
   <time name="total">    0.23    0.23</time>
   <energy>
    <i name="alphaZ">      3.23732588 </i>
    <i name="ewald">   -225.65453461 </i>
    <i name="hartreedc">    -15.36608105 </i>
    <i name="XCdc">    -18.12635163 </i>
    <i name="pawpsdc">    955.21112391 </i>
    <i name="pawaedc">   -920.22689172 </i>
    <i name="eentropy">      0.00000000 </i>
    <i name="bandstr">      3.98076996 </i>
    <i name="atom">    206.12155316 </i>
    <i name="e_fr_energy">    -10.82308611 </i>
    <i name="e_wo_entrp">    -10.82308611 </i>
    <i name="e_0_energy">    -10.82308611 </i>
   </energy>
  </scstep>
  <structure>
   <crystal>
    <varray name="basis" >
     <v>       0.00000000       2.75000000       2.75000000 </v>
     <v>       2.75000000       0.00000000       2.75000000 </v>
     <v>       2.75000000       2.75000000       0.00000000 </v>
    </varray>
    <i name="volume">     41.59375000 </i>
    <varray name="rec_basis" >
     <v>      -0.18181818       0.18181818       0.18181818 </v>
     <v>       0.18181818      -0.18181818       0.18181818 </v>
     <v>       0.18181818       0.18181818      -0.18181818 </v>
    </varray>
   </crystal>
   <varray name="positions" >
    <v>       0.87500000       0.87500000       0.87500000 </v>
    <v>       0.12500000       0.12500000       0.12500000 </v>
   </varray>
  </structure>
  <varray name="forces" >
   <v>      -0.00000000       0.00000000      -0.00000000 </v>
   <v>       0.00000000      -0.00000000       0.00000000 </v>
  </varray>
  <varray name="stress" >
   <v>     -16.36043398       0.00000000      -0.00000000 </v>
   <v>       0.00000000     -16.36043398       0.00000000 </v>
   <v>       0.00000000       0.00000000     -16.36043398 </v>
  </varray>
  <energy>
   <i name="e_fr_energy">    -10.82308611 </i>
   <i name="e_wo_entrp">    -10.82308611 </i>
   <i name="e_0_energy">      0.00000000 </i>
  </energy>